ITEM: TIMESTEP
0
ITEM: NUMBER OF ATOMS
60
ITEM: BOX BOUNDS pp pp pp
-1.7342619108944746e-01 5.2435261910898641e+00
-3.0038397315421506e-01 9.0820839731540985e+00
-5.7540785911608872e-01 1.7397407859114203e+01
ITEM: ATOMS id type xs ys zs
1 1 0.960304 0.522913 0.876458
2 2 0.523804 0.711274 0.459383
3 3 0.382564 0.711357 0.51519
4 3 0.740899 0.759038 0.46823
5 3 0.452666 0.676626 0.393233
6 1 0.119871 0.227583 0.706502
7 2 0.304192 0.316132 0.324225
8 3 0.307148 0.312047 0.396461
9 3 0.518371 0.310449 0.293147
10 3 0.0993529 0.319321 0.288856
11 1 0.457583 0.267317 0.928777
12 2 0.0689049 0.964088 0.339949
13 3 0.29101 0.986299 0.347333
14 3 0.949948 0.0413172 0.382415
15 3 0.982945 0.915982 0.278278
16 1 0.0019131 0.884751 0.559653
17 2 0.611403 0.385565 0.732269
18 3 0.629997 0.407518 0.663053
19 3 0.790332 0.385241 0.776981
20 3 0.394356 0.39519 0.755983
21 1 0.837159 0.832754 0.0895281
22 2 0.354299 0.996609 0.11943
23 3 0.525426 0.0758582 0.147539
24 3 0.417222 0.875661 0.095364
25 3 0.136649 0.0509694 0.119695
26 1 0.490614 0.125394 0.470796
27 2 0.954409 0.29025 0.0361191
28 3 0.185465 0.30405 0.0205937
29 3 0.89051 0.279109 0.108054
30 3 0.805075 0.306741 0.98524
31 1 0.767735 0.447921 0.391026
32 2 0.976768 0.251275 0.542898
33 3 0.0328146 0.12485 0.537035
34 3 0.774033 0.301863 0.509918
35 3 0.136246 0.335128 0.568996
36 1 0.456404 0.785206 0.292432
37 2 0.893538 0.720225 0.721346
38 3 0.0650686 0.691361 0.679703
39 3 0.716142 0.789122 0.696218
40 3 0.888822 0.698734 0.787764
41 1 0.886452 0.1561 0.211373
42 2 0.582969 0.0375812 0.670114
43 3 0.374468 0.00182622 0.694839
44 3 0.599138 0.0115654 0.600232
45 3 0.73511 0.112148 0.705818
46 1 0.36146 0.584938 0.618117
47 2 0.494902 0.654671 0.948911
48 3 0.374337 0.561557 0.985591
49 3 0.407966 0.672259 0.882633
50 3 0.699244 0.713658 0.966076
51 1 0.528991 0.422154 0.100235
52 2 0.989461 0.61708 0.214538
53 3 0.917669 0.595147 0.283318
54 3 0.214979 0.637414 0.20089
55 3 0.849762 0.62359 0.157826
56 1 0.495094 0.893121 0.814547
57 2 0.999997 0.0707313 0.88108
58 3 0.764019 0.0594175 0.877208
59 3 0.131071 0.966297 0.867587
60 3 0.075946 0.196733 0.885105
ITEM: TIMESTEP
1000
ITEM: NUMBER OF ATOMS
60
ITEM: BOX BOUNDS pp pp pp
-1.7342619108944746e-01 5.2435261910898641e+00
-3.0038397315421506e-01 9.0820839731540985e+00
-5.7540785911608872e-01 1.7397407859114203e+01
ITEM: ATOMS id type xs ys zs
1 1 0.95781 0.575523 0.898412
2 2 0.446875 0.636624 0.440861
3 3 0.278815 0.576284 0.405418
4 3 0.463292 0.605225 0.507306
5 3 0.614055 0.700002 0.407618
6 1 0.0124485 0.172696 0.680815
7 2 0.417102 0.238298 0.318747
8 3 0.461952 0.25916 0.385195
9 3 0.588568 0.246092 0.272741
10 3 0.193929 0.228644 0.302295
11 1 0.566579 0.152664 0.929859
12 2 0.952232 0.0121604 0.406437
13 3 0.00715254 0.110012 0.45006
14 3 0.788465 0.0228413 0.358494
15 3 0.0214215 0.884205 0.419483
16 1 0.912038 0.807286 0.532614
17 2 0.353923 0.422112 0.785492
18 3 0.255079 0.365167 0.730339
19 3 0.237484 0.414102 0.846526
20 3 0.523795 0.511444 0.76757
21 1 0.0115678 0.913163 0.0414496
22 2 0.489565 0.0402674 0.0849645
23 3 0.293862 0.0637934 0.114147
24 3 0.691609 0.0500218 0.125923
25 3 0.500897 0.0199578 0.0170769
26 1 0.424824 0.129183 0.488774
27 2 0.970528 0.361512 0.0458293
28 3 0.0776469 0.4689 0.0729342
29 3 0.792081 0.316915 0.0851317
30 3 0.952121 0.323488 0.982233
31 1 0.94048 0.417063 0.37132
32 2 0.916017 0.346672 0.548637
33 3 0.144662 0.318518 0.565269
34 3 0.86379 0.424864 0.492637
35 3 0.768728 0.318228 0.597954
36 1 0.67771 0.815631 0.295144
37 2 0.942634 0.692569 0.707768
38 3 0.134357 0.629039 0.672114
39 3 0.768827 0.730518 0.66784
40 3 0.950037 0.687319 0.776449
41 1 0.934374 0.161032 0.203047
42 2 0.441616 0.969295 0.618067
43 3 0.218032 0.978155 0.599898
44 3 0.591554 0.979479 0.562162
45 3 0.514073 -0.00917672 0.683115
46 1 0.448713 0.473117 0.630089
47 2 0.506112 0.723085 0.97035
48 3 0.28027 0.740636 0.97495
49 3 0.615259 0.728093 0.908577
50 3 0.653832 0.719531 0.0269391
51 1 0.501732 0.49371 0.133629
52 2 0.0545914 0.676844 0.218821
53 3 0.854751 0.627991 0.234545
54 3 0.244049 0.599737 0.233921
55 3 0.061292 0.786033 0.173263
56 1 0.501622 0.780477 0.774606
57 2 0.0782835 1.01494 0.866542
58 3 0.951111 1.01142 0.925138
59 3 0.318891 0.0101012 0.866359
60 3 0.986866 0.0262146 0.8058
ITEM: TIMESTEP
2000
ITEM: NUMBER OF ATOMS
60
ITEM: BOX BOUNDS pp pp pp
-1.7342619108944746e-01 5.2435261910898641e+00
-3.0038397315421506e-01 9.0820839731540985e+00
-5.7540785911608872e-01 1.7397407859114203e+01
ITEM: ATOMS id type xs ys zs
1 1 0.909814 0.512998 0.865869
2 2 0.381034 0.640677 0.470188
3 3 0.238458 0.704215 0.423381
4 3 0.288623 0.579022 0.525099
5 3 0.612876 0.66005 0.47161
6 1 0.953668 0.139705 0.706704
7 2 0.627046 0.336038 0.290946
8 3 0.621782 0.219472 0.252176
9 3 0.624463 0.343099 0.361184
10 3 0.634195 0.454244 0.251166
11 1 0.502589 0.216455 0.983677
12 2 0.91274 0.00686365 0.369177
13 3 0.903161 0.00626548 0.441428
14 3 0.712549 1.025 0.33546
15 3 0.117165 0.0266465 0.337122
16 1 1.0446 0.86488 0.531468
17 2 0.428713 0.302996 0.801741
18 3 0.463272 0.364191 0.865927
19 3 0.573245 0.305708 0.749546
20 3 0.240196 0.224902 0.795892
21 1 0.965483 0.786978 0.0223883
22 2 0.390364 0.979544 0.120038
23 3 0.160668 0.937694 0.117664
24 3 0.551026 0.8957 0.139254
25 3 0.423099 0.104709 0.106519
26 1 0.471826 0.156915 0.43426
27 2 0.0188867 0.347852 0.0305621
28 3 0.141493 0.370943 0.971625
29 3 0.132221 0.321148 0.0886494
30 3 0.795669 0.304067 0.0332092
31 1 0.928235 0.500126 0.410721
32 2 0.033888 0.317984 0.5701
33 3 0.810946 0.355305 0.573002
34 3 0.138692 0.305653 0.634079
35 3 0.133615 0.29046 0.507362
36 1 0.496236 0.843337 0.282006
37 2 0.0645157 0.692222 0.7169
38 3 0.259844 0.747641 0.711324
39 3 0.868911 0.748071 0.680017
40 3 0.0317093 0.579504 0.762118
41 1 0.894038 0.123516 0.160464
42 2 0.497383 0.0432674 0.611256
43 3 0.385075 0.0347661 0.672626
44 3 0.374609 1.01846 0.552401
45 3 0.727886 0.0495436 0.607071
46 1 0.566285 0.503288 0.665529
47 2 0.483982 0.714672 0.930473
48 3 0.25414 0.696824 0.926403
49 3 0.603012 0.715041 0.87606
50 3 0.575879 0.687556 -0.00470986
51 1 0.498831 0.535566 0.128597
52 2 -0.00919077 0.703698 0.204887
53 3 0.880614 0.765028 0.259987
54 3 0.869577 0.666553 0.147271
55 3 0.221897 0.689443 0.212182
56 1 0.31718 0.936448 0.792054
57 2 0.891053 1.00166 0.880932
58 3 0.0634096 0.957829 0.919927
59 3 0.907195 1.00627 0.811558
60 3 0.679449 0.0244105 0.909528
ITEM: TIMESTEP
3000
ITEM: NUMBER OF ATOMS
60
ITEM: BOX BOUNDS pp pp pp
-1.7342619108944746e-01 5.2435261910898641e+00
-3.0038397315421506e-01 9.0820839731540985e+00
-5.7540785911608872e-01 1.7397407859114203e+01
ITEM: ATOMS id type xs ys zs
1 1 0.0509646 0.519316 0.871461
2 2 0.421622 0.624754 0.462682
3 3 0.359551 0.6502 0.391329
4 3 0.2556 0.624557 0.512841
5 3 0.643319 0.616193 0.483961
6 1 -0.0136276 0.173792 0.719758
7 2 0.423968 0.342114 0.285185
8 3 0.219175 0.390589 0.278581
9 3 0.517534 0.329157 0.350644
10 3 0.569132 0.377294 0.23167
11 1 0.507366 0.236591 0.961063
12 2 0.867007 0.982787 0.366499
13 3 0.0622765 0.0191989 0.331289
14 3 0.858579 0.898135 0.416385
15 3 0.676861 0.0568079 0.350584
16 1 0.945771 0.843301 0.543492
17 2 0.503899 0.379683 0.819362
18 3 0.332042 0.330476 0.859661
19 3 0.727854 0.350264 0.830019
20 3 0.456612 0.440046 0.761505
21 1 1.0026 0.822439 0.043201
22 2 0.375037 0.0328089 0.136909
23 3 0.427392 0.0911057 0.0736931
24 3 0.157895 1.01505 0.149092
25 3 0.540812 0.972818 0.176976
26 1 0.465405 0.116455 0.442661
27 2 0.0278856 0.327654 0.0506457
28 3 0.24797 0.372721 0.0451929
29 3 0.918148 0.293935 0.113963
30 3 0.940982 0.302441 0.9886
31 1 0.930386 0.514391 0.366896
32 2 0.990782 0.292661 0.534222
33 3 0.87317 0.32368 0.594186
34 3 0.21453 0.315313 0.525694
35 3 0.876248 0.25807 0.474197
36 1 0.373185 0.792115 0.2948
37 2 0.0311053 0.741682 0.70896
38 3 0.12366 0.809176 0.657934
39 3 0.821434 0.706015 0.703701
40 3 0.162659 0.688805 0.758237
41 1 0.894134 0.179681 0.224496
42 2 0.535205 0.0633565 0.606932
43 3 0.394611 1.02464 0.55257
44 3 0.771155 0.0592411 0.60834
45 3 0.431629 0.07708 0.669197
46 1 0.488118 0.537903 0.636544
47 2 0.525255 0.634334 0.949707
48 3 0.653296 0.544511 0.981859
49 3 0.292365 0.671409 0.965123
50 3 0.625856 0.682524 0.889004
51 1 0.590629 0.474822 0.107038
52 2 0.939066 0.663449 0.203322
53 3 0.695451 0.648046 0.187483
54 3 0.104284 0.649723 0.147661
55 3 1.00631 0.708931 0.265416
56 1 0.480763 0.895988 0.810211
57 2 0.972397 0.979572 0.880022
58 3 0.804597 0.961847 0.925281
59 3 0.192933 0.944332 0.89842
60 3 0.918687 0.0201809 0.814042
ITEM: TIMESTEP
4000
ITEM: NUMBER OF ATOMS
60
ITEM: BOX BOUNDS pp pp pp
-1.7342619108944746e-01 5.2435261910898641e+00
-3.0038397315421506e-01 9.0820839731540985e+00
-5.7540785911608872e-01 1.7397407859114203e+01
ITEM: ATOMS id type xs ys zs
1 1 -0.0297081 0.513412 0.902043
2 2 0.507505 0.699628 0.460011
3 3 0.728249 0.683765 0.446883
4 3 0.350576 0.6901 0.40741
5 3 0.443902 0.675749 0.523278
6 1 0.0869281 0.177706 0.71094
7 2 0.504738 0.28614 0.303977
8 3 0.713402 0.268519 0.276096
9 3 0.33493 0.351422 0.265728
10 3 0.480623 0.26047 0.373382
11 1 0.384942 0.184642 0.941508
12 2 0.922955 0.982674 0.369357
13 3 0.0508989 0.996013 0.427187
14 3 0.691166 0.943005 0.372514
15 3 0.0234033 -0.000922854 0.306386
16 1 0.022189 0.804672 0.525751
17 2 0.480162 0.366048 0.809651
18 3 0.277455 0.375824 0.843854
19 3 0.679859 0.371558 0.854662
20 3 0.483835 0.385833 0.74016
21 1 0.987179 0.831334 0.0397984
22 2 0.487571 0.0473093 0.0982114
23 3 0.259972 0.0701153 0.0887601
24 3 0.529518 0.00888968 0.162285
25 3 0.654916 0.0567569 0.0484663
26 1 0.422334 0.0993712 0.464096
27 2 0.907178 0.358595 0.0617061
28 3 -0.0176084 0.359756 -0.00647642
29 3 0.0568318 0.352882 0.112434
30 3 0.683823 0.398699 0.0734488
31 1 0.0576044 0.499556 0.392045
32 2 0.893344 0.372105 0.562095
33 3 -0.0374741 0.343304 0.626632
34 3 0.0570645 0.417529 0.513309
35 3 0.682388 0.35083 0.53707
36 1 0.474281 0.854618 0.274894
37 2 0.90664 0.652082 0.697938
38 3 0.0677904 0.615136 0.647827
39 3 0.678093 0.66396 0.682151
40 3 0.995824 0.708792 0.759574
41 1 0.998171 0.17074 0.193107
42 2 0.601602 0.0652384 0.625374
43 3 0.782872 1.00737 0.59233
44 3 0.619653 0.119468 0.690028
45 3 0.408352 0.0450321 0.594371
46 1 0.411314 0.515414 0.618885
47 2 0.547903 0.635307 0.961075
48 3 0.760245 0.672735 0.94737
49 3 0.485823 0.643164 0.0299861
50 3 0.39555 0.600269 0.911322
51 1 0.376008 0.495503 0.154776
52 2 0.854393 0.641786 0.206554
53 3 0.99101 0.571234 0.253614
54 3 0.633021 0.657025 0.21742
55 3 0.957477 0.698935 0.150395
56 1 0.485517 0.839591 0.788783
57 2 -0.000439009 -0.00834456 0.840343
58 3 0.771539 0.00429835 0.833201
59 3 0.115434 0.00309829 0.90266
60 3 0.13987 0.997157 0.787299
ITEM: TIMESTEP
5000
ITEM: NUMBER OF ATOMS
60
ITEM: BOX BOUNDS pp pp pp
-1.7342619108944746e-01 5.2435261910898641e+00
-3.0038397315421506e-01 9.0820839731540985e+00
-5.7540785911608872e-01 1.7397407859114203e+01
ITEM: ATOMS id type xs ys zs
1 1 0.116468 0.539812 0.90354
2 2 0.445034 0.686747 0.440062
3 3 0.677632 0.665003 0.428089
4 3 0.303407 0.719881 0.386135
5 3 0.362278 0.668434 0.502838
6 1 0.200687 0.236569 0.733836
7 2 0.390226 0.320737 0.319961
8 3 0.449886 0.292721 0.254543
9 3 0.170982 0.31006 0.337585
10 3 0.550867 0.346885 0.368265
11 1 0.550452 0.164879 0.941729
12 2 0.82745 0.979459 0.377833
13 3 0.948997 -0.00291391 0.317133
14 3 0.949142 0.983903 0.439152
15 3 0.60523 0.95271 0.376053
16 1 0.81891 0.769654 0.547659
17 2 0.67367 0.409486 0.796701
18 3 0.582099 0.424863 0.862861
19 3 0.921938 0.415008 0.784682
20 3 0.523628 0.381827 0.741213
21 1 0.0855974 0.843466 0.0358912
22 2 0.49328 0.902422 0.122853
23 3 0.460682 0.925804 0.190079
24 3 0.428079 -0.00375403 0.0767724
25 3 0.555338 0.775028 0.09757
26 1 0.227795 0.151973 0.455973
27 2 0.944294 0.30956 0.0429869
28 3 0.169178 0.341112 0.0590468
29 3 0.844137 0.225396 0.0894785
30 3 0.844734 0.337534 0.983667
31 1 0.910169 0.50517 0.382147
32 2 0.804319 0.344548 0.56123
33 3 0.955746 0.316679 0.611307
34 3 0.882586 0.320322 0.498289
35 3 0.610868 0.414291 0.58022
36 1 0.284455 0.835374 0.297127
37 2 0.0396589 0.705889 0.697791
38 3 0.848541 0.762126 0.731274
39 3 0.219142 0.67467 0.737477
40 3 0.992974 0.638791 0.643518
41 1 0.876395 0.248227 0.228366
42 2 0.481481 1.01207 0.626748
43 3 0.571554 0.892105 0.604537
44 3 0.481739 0.046163 0.69163
45 3 0.306483 0.0845596 0.590483
46 1 0.456307 0.568044 0.644798
47 2 0.564903 0.707864 0.936466
48 3 0.397085 0.654067 0.979386
49 3 0.501473 0.79801 0.890268
50 3 0.798557 0.688702 0.947447
51 1 0.441286 0.534971 0.0933839
52 2 0.981403 0.594869 0.176876
53 3 0.760857 0.571856 0.210972
54 3 0.982914 0.631084 0.106026
55 3 0.162224 0.609847 0.218827
56 1 0.605834 0.899926 0.787369
57 2 0.062811 0.0405193 0.869443
58 3 0.24806 0.107284 0.849168
59 3 0.871625 0.0591092 0.83689
60 3 0.0536173 0.964889 0.929135
ITEM: TIMESTEP
6000
ITEM: NUMBER OF ATOMS
60
ITEM: BOX BOUNDS pp pp pp
-1.7342619108944746e-01 5.2435261910898641e+00
-3.0038397315421506e-01 9.0820839731540985e+00
-5.7540785911608872e-01 1.7397407859114203e+01
ITEM: ATOMS id type xs ys zs
1 1 0.947084 0.50918 0.856324
2 2 0.33908 0.705894 0.474242
3 3 0.426793 0.642631 0.41739
4 3 0.115656 0.758227 0.474597
5 3 0.477168 0.735323 0.531212
6 1 0.904018 0.113435 0.704023
7 2 0.635615 0.279273 0.295415
8 3 0.497292 0.196258 0.252887
9 3 0.564075 0.326175 0.356004
10 3 0.857632 0.289985 0.279998
11 1 0.493406 0.231813 0.96212
12 2 0.979747 0.93337 0.3714
13 3 0.176893 -0.00287845 0.37581
14 3 0.776632 0.98204 0.397328
15 3 0.978614 0.819359 0.333437
16 1 0.869134 0.852087 0.557455
17 2 0.504206 0.323609 0.785075
18 3 0.274975 0.299213 0.788292
19 3 0.595256 0.330157 0.84898
20 3 0.636438 0.30284 0.732915
21 1 0.126102 0.898278 0.0624089
22 2 0.547523 0.0226605 0.126212
23 3 0.422665 0.937157 0.166696
24 3 0.421888 0.0881702 0.0748969
25 3 0.780802 0.0164801 0.130002
26 1 0.375727 0.114177 0.465902
27 2 0.0453649 0.383924 0.0269289
28 3 0.274784 0.421635 0.0216115
29 3 0.927749 0.380071 0.0872188
30 3 0.915798 0.370427 0.966459
31 1 0.963971 0.550009 0.382949
32 2 0.976763 0.344933 0.548936
33 3 0.156749 0.376503 0.586717
34 3 0.98666 0.354851 0.476251
35 3 0.774737 0.304848 0.578058
36 1 0.496519 0.841215 0.296545
37 2 0.933782 0.702979 0.714559
38 3 0.78807 0.673772 0.76437
39 3 0.151745 0.760506 0.723137
40 3 0.852365 0.698933 0.645629
41 1 0.149642 0.255882 0.193147
42 2 0.342247 0.00628768 0.614582
43 3 0.428022 0.0120355 0.683722
44 3 0.121726 0.00747882 0.598283
45 3 0.477387 0.0448372 0.565285
46 1 0.515462 0.486738 0.63295
47 2 0.231859 0.688223 0.956822
48 3 0.390657 0.704365 0.00546195
49 3 0.00617984 0.698085 0.981346
50 3 0.276958 0.641929 0.893966
51 1 0.610975 0.560942 0.0920732
52 2 0.0862352 0.595091 0.180509
53 3 0.228063 0.673493 0.139543
54 3 0.198946 0.491182 0.209147
55 3 0.866875 0.611856 0.188442
56 1 0.410198 0.868714 0.837458
57 2 0.946218 0.0252816 0.891928
58 3 0.963264 0.0134095 0.822401
59 3 0.75138 0.0264524 0.933607
60 3 0.16219 0.0309701 0.917619
ITEM: TIMESTEP
7000
ITEM: NUMBER OF ATOMS
60
ITEM: BOX BOUNDS pp pp pp
-1.7342619108944746e-01 5.2435261910898641e+00
-3.0038397315421506e-01 9.0820839731540985e+00
-5.7540785911608872e-01 1.7397407859114203e+01
ITEM: ATOMS id type xs ys zs
1 1 0.0741808 0.489414 0.866976
2 2 0.386828 0.700165 0.443378
3 3 0.205533 0.732738 0.48287
4 3 0.577421 0.643752 0.470755
5 3 0.367518 0.692717 0.374446
6 1 0.90744 0.176498 0.70302
7 2 0.408391 0.33397 0.298609
8 3 0.280356 0.331723 0.240448
9 3 0.305709 0.321196 0.36195
10 3 0.644302 0.35965 0.296131
11 1 0.521294 0.173769 0.962662
12 2 0.927583 -0.0139469 0.367593
13 3 0.149424 0.970598 0.34147
14 3 0.907762 0.0111157 0.434467
15 3 0.75646 0.0187758 0.325144
16 1 0.964821 0.903831 0.536989
17 2 0.48759 0.346243 0.781098
18 3 0.693302 0.351861 0.739188
19 3 0.271354 0.372894 0.751665
20 3 0.535699 0.325462 0.850714
21 1 0.993784 0.81494 0.056801
22 2 0.541265 0.969104 0.126855
23 3 0.386449 0.026608 0.167105
24 3 0.570784 0.9913 0.0566007
25 3 0.696105 0.907345 0.163148
26 1 0.501393 0.190196 0.458322
27 2 0.00906554 0.332841 0.0593349
28 3 0.242391 0.333937 0.060145
29 3 0.899237 0.234972 0.0943847
30 3 0.900311 0.432362 0.0275649
31 1 0.922917 0.479004 0.385741
32 2 0.017562 0.334593 0.546367
33 3 0.948557 0.336381 0.615533
34 3 0.230763 0.364919 0.536829
35 3 0.890871 0.301515 0.489976
36 1 0.42087 0.853997 0.268656
37 2 0.968087 0.697148 0.715495
38 3 0.789941 0.674461 0.75785
39 3 0.188478 0.692175 0.749629
40 3 0.952467 0.700333 0.64839
41 1 1.0144 0.162669 0.209527
42 2 0.398483 0.0223824 0.621593
43 3 0.506635 0.0386985 0.558293
44 3 0.530008 1.00863 0.675951
45 3 0.161532 0.0210698 0.629898
46 1 0.585298 0.534684 0.624575
47 2 0.546751 0.668877 0.960107
48 3 0.772136 0.655413 0.943903
49 3 0.467206 0.682855 0.0236042
50 3 0.394552 0.646066 0.908795
51 1 0.462129 0.493626 0.146571
52 2 0.92911 0.646012 0.206647
53 3 0.029776 0.661424 0.149338
54 3 0.0421905 0.617764 0.2593
55 3 0.696603 0.634323 0.216496
56 1 0.468799 0.848228 0.799355
57 2 0.925344 0.0330876 0.858219
58 3 0.752381 0.0257982 0.903879
59 3 0.124185 0.072569 0.887726
60 3 0.890242 1.00599 0.790999
ITEM: TIMESTEP
8000
ITEM: NUMBER OF ATOMS
60
ITEM: BOX BOUNDS pp pp pp
-1.7342619108944746e-01 5.2435261910898641e+00
-3.0038397315421506e-01 9.0820839731540985e+00
-5.7540785911608872e-01 1.7397407859114203e+01
ITEM: ATOMS id type xs ys zs
1 1 0.00454343 0.480288 0.879355
2 2 0.409126 0.669852 0.462673
3 3 0.54278 0.701832 0.409505
4 3 0.175528 0.652115 0.452127
5 3 0.488821 0.621692 0.523677
6 1 0.904546 0.143768 0.726356
7 2 0.378838 0.413409 0.309407
8 3 0.437678 0.527634 0.281184
9 3 0.142882 0.379108 0.308225
10 3 0.535328 0.352461 0.34808
11 1 0.477664 0.130782 0.966884
12 2 0.953108 0.0473349 0.397477
13 3 0.125576 0.0822939 0.352251
14 3 0.968815 0.0526287 0.466999
15 3 0.749256 0.00565678 0.375177
16 1 0.906036 0.829686 0.509656
17 2 0.430483 0.223583 0.78711
18 3 0.52942 0.183072 0.848774
19 3 0.553872 0.266879 0.733183
20 3 0.20707 0.225302 0.790092
21 1 1.02319 0.893979 0.0475552
22 2 0.509053 0.0641496 0.130296
23 3 0.276715 0.0675535 0.115287
24 3 0.662884 0.0242061 0.079941
25 3 0.561118 0.0684345 0.20029
26 1 0.468067 0.208745 0.442403
27 2 0.978597 0.339017 0.0578296
28 3 0.0591495 0.29543 0.999431
29 3 0.121221 0.342956 0.114927
30 3 0.765845 0.400591 0.0592255
31 1 0.92884 0.496559 0.399913
32 2 0.99166 0.34362 0.537648
33 3 0.0288994 0.329451 0.606918
34 3 0.156435 0.306728 0.488978
35 3 0.792726 0.398394 0.519768
36 1 0.463481 0.87492 0.307775
37 2 0.061707 0.581618 0.702083
38 3 0.257353 0.617749 0.681798
39 3 0.86518 0.598319 0.665295
40 3 1.02101 0.527155 0.762199
41 1 0.952965 0.220989 0.242973
42 2 0.467216 1.00667 0.586154
43 3 0.511409 0.984837 0.521981
44 3 0.651778 0.000610905 0.633175
45 3 0.253983 0.979983 0.605999
46 1 0.484916 0.423499 0.624889
47 2 0.476374 0.701882 0.95915
48 3 0.705308 0.706731 0.957134
49 3 0.336753 0.743965 0.00879936
50 3 0.388515 0.635757 0.904005
51 1 0.448256 0.571534 0.128216
52 2 0.998777 0.746171 0.205585
53 3 0.776226 0.711212 0.177063
54 3 0.21626 0.741654 0.171703
55 3 0.00125757 0.809975 0.269113
56 1 0.533103 0.825539 0.738866
57 2 0.0341805 0.956217 0.855791
58 3 0.857573 0.943355 0.805844
59 3 0.990957 0.966794 0.923078
60 3 0.26515 0.956255 0.824444
ITEM: TIMESTEP
9000
ITEM: NUMBER OF ATOMS
60
ITEM: BOX BOUNDS pp pp pp
-1.7342619108944746e-01 5.2435261910898641e+00
-3.0038397315421506e-01 9.0820839731540985e+00
-5.7540785911608872e-01 1.7397407859114203e+01
ITEM: ATOMS id type xs ys zs
1 1 0.00632452 0.536228 0.865895
2 2 0.503518 0.686462 0.4808
3 3 0.349041 0.688507 0.425795
4 3 0.437766 0.693857 0.549575
5 3 0.742384 0.677745 0.466001
6 1 0.932256 0.172626 0.698173
7 2 0.555544 0.399948 0.296378
8 3 0.783027 0.411885 0.278376
9 3 0.396714 0.418108 0.250654
10 3 0.493222 0.366364 0.359973
11 1 0.316153 0.207649 0.966557
12 2 0.982382 0.0660431 0.385572
13 3 0.160931 0.0461507 0.42881
14 3 0.760015 0.0309555 0.406705
15 3 0.00333561 0.113941 0.321869
16 1 0.0117137 0.833517 0.549741
17 2 0.486857 0.30123 0.79468
18 3 0.723477 0.283677 0.797954
19 3 0.380122 0.289695 0.728727
20 3 0.346237 0.33755 0.847234
21 1 0.015179 0.799591 0.0227666
22 2 0.432869 0.984059 0.0952784
23 3 0.281594 0.0579543 0.0594925
24 3 0.627124 0.926128 0.0631231
25 3 0.402906 0.957048 0.160846
26 1 0.496683 0.192108 0.479214
27 2 0.81208 0.307287 0.0463189
28 3 0.883413 0.290835 0.976814
29 3 0.975757 0.3103 0.0944697
30 3 0.592906 0.348608 0.0587245
31 1 0.0885381 0.504296 0.386755
32 2 0.950783 0.359913 0.556259
33 3 0.0742065 0.370434 0.499466
34 3 0.717106 0.364733 0.550045
35 3 0.0511157 0.350928 0.622913
36 1 0.449282 0.808078 0.288002
37 2 0.95059 0.639999 0.695506
38 3 0.716638 0.626092 0.704166
39 3 0.100188 0.618469 0.746222
40 3 0.0355436 0.665387 0.629342
41 1 0.00210165 0.224818 0.218582
42 2 0.468176 0.00963158 0.616536
43 3 0.238784 0.0356612 0.594115
44 3 0.660178 0.0663114 0.592059
45 3 0.487307 0.940179 0.677297
46 1 0.428284 0.478099 0.630408
47 2 0.461012 0.635307 0.957347
48 3 0.414763 0.650874 0.884433
49 3 0.69497 0.653303 0.973643
50 3 0.277057 0.64431 1.00252
51 1 0.495947 0.556344 0.126555
52 2 0.984801 0.724427 0.217901
53 3 0.778491 0.732105 0.190267
54 3 0.168458 0.713946 0.172988
55 3 0.025898 0.732819 0.285554
56 1 0.483707 0.813319 0.783743
57 2 0.0189043 0.936216 0.857163
58 3 0.868963 0.846076 0.841309
59 3 0.0553236 0.976222 0.921936
60 3 0.159605 0.971343 0.812548
ITEM: TIMESTEP
10000
ITEM: NUMBER OF ATOMS
60
ITEM: BOX BOUNDS pp pp pp
-1.7342619108944746e-01 5.2435261910898641e+00
-3.0038397315421506e-01 9.0820839731540985e+00
-5.7540785911608872e-01 1.7397407859114203e+01
ITEM: ATOMS id type xs ys zs
1 1 0.817677 0.452344 0.862097
2 2 0.507142 0.701056 0.443986
3 3 0.436696 0.665627 0.387423
4 3 0.348745 0.739345 0.493564
5 3 0.719085 0.684225 0.463383
6 1 0.909899 0.116738 0.71912
7 2 0.51938 0.35387 0.292841
8 3 0.736239 0.339386 0.279174
9 3 0.387088 0.371508 0.236044
10 3 0.433942 0.358252 0.362003
11 1 0.469324 0.111925 0.95513
12 2 0.111287 0.979017 0.361851
13 3 0.918912 0.986525 0.40684
14 3 0.0594897 0.984266 0.298833
15 3 0.34008 0.987194 0.384138
16 1 0.962646 0.822728 0.536659
17 2 0.335647 0.249853 0.800582
18 3 0.1775 0.259047 0.848904
19 3 0.553703 0.231487 0.821201
20 3 0.270391 0.243338 0.734141
21 1 0.892692 0.897159 0.0639521
22 2 0.445647 0.0533542 0.145075
23 3 0.60046 0.0439549 0.194187
24 3 0.218094 0.0487532 0.161652
25 3 0.522786 0.0708407 0.0788898
26 1 0.567353 0.153736 0.453304
27 2 0.047942 0.359932 0.0431403
28 3 0.247439 0.308794 0.0187016
29 3 0.0432567 0.413171 0.104133
30 3 0.847701 0.360335 1.00538
31 1 0.0184652 0.511039 0.36459
32 2 0.977786 0.366115 0.547175
33 3 0.167115 0.425734 0.571193
34 3 0.972584 0.332321 0.480901
35 3 0.788355 0.341601 0.585642
36 1 0.547636 0.838475 0.279882
37 2 0.92163 0.646722 0.685252
38 3 0.909089 0.542768 0.734457
39 3 0.129445 0.70903 0.673819
40 3 0.742639 0.688754 0.646868
41 1 -0.00198981 0.262222 0.205629
42 2 0.398351 0.0156495 0.625233
43 3 0.478002 0.051246 0.561424
44 3 0.542298 0.983821 0.677882
45 3 0.178492 0.00740414 0.635246
46 1 0.437292 0.510639 0.626208
47 2 0.467341 0.70792 0.979505
48 3 0.493809 0.649975 0.922481
49 3 0.475376 0.647532 0.0381913
50 3 0.491108 0.842314 0.977659
51 1 0.454966 0.522248 0.132283
52 2 -0.00318422 0.671119 0.213103
53 3 0.838869 0.735256 0.167163
54 3 0.206478 0.726908 0.209143
55 3 0.928459 0.582711 0.259708
56 1 0.450093 0.82677 0.774163
57 2 0.96266 0.981983 0.873341
58 3 -0.00691422 0.974147 0.945294
59 3 0.1355 0.953808 0.819233
60 3 0.746169 0.0301695 0.84347
ITEM: TIMESTEP
11000
ITEM: NUMBER OF ATOMS
60
ITEM: BOX BOUNDS pp pp pp
-1.7342619108944746e-01 5.2435261910898641e+00
-3.0038397315421506e-01 9.0820839731540985e+00
-5.7540785911608872e-01 1.7397407859114203e+01
ITEM: ATOMS id type xs ys zs
1 1 0.900839 0.429108 0.907125
2 2 0.359371 0.668152 0.455425
3 3 0.385397 0.683257 0.387913
4 3 0.153867 0.69018 0.482654
5 3 0.553968 0.623239 0.491353
6 1 -0.0391483 0.200485 0.712232
7 2 0.449076 0.356991 0.270431
8 3 0.603444 0.458658 0.252865
9 3 0.358172 0.270879 0.227888
10 3 0.329926 0.372175 0.328188
11 1 0.445487 0.108306 0.971167
12 2 1.01933 -0.0162039 0.386989
13 3 0.818739 0.94891 0.355339
14 3 0.196701 0.0252563 0.347477
15 3 0.0281787 0.00248006 0.458503
16 1 0.905373 0.844697 0.548104
17 2 0.457018 0.373537 0.802982
18 3 0.369353 0.395901 0.868114
19 3 0.695191 0.380915 0.792061
20 3 0.312249 0.347818 0.748646
21 1 0.958797 0.822433 0.0151893
22 2 0.534068 0.954531 0.129647
23 3 0.502227 -0.0226058 0.195287
24 3 0.337665 0.926531 0.0902903
25 3 0.739133 0.983339 0.0968353
26 1 0.437266 0.196187 0.439642
27 2 1.00607 0.257271 0.062176
28 3 0.213267 0.286209 0.0334117
29 3 0.984036 0.237629 0.131964
30 3 0.826094 0.281346 0.015995
31 1 0.870493 0.465436 0.349094
32 2 0.89692 0.373886 0.531302
33 3 0.0929361 0.37392 0.493729
34 3 0.690574 0.339444 0.50453
35 3 -0.0798512 0.396843 0.605439
36 1 0.504494 0.799605 0.294238
37 2 0.990507 0.704031 0.724545
38 3 0.921722 0.730876 0.786227
39 3 0.199971 0.685109 0.702936
40 3 0.817103 0.698646 0.679133
41 1 0.094582 0.0797152 0.217566
42 2 0.496703 0.0349777 0.62754
43 3 0.693922 0.0457806 0.665951
44 3 0.471702 0.929605 0.580885
45 3 0.335324 0.134159 0.633251
46 1 0.418272 0.511 0.622661
47 2 0.505219 0.733383 0.960857
48 3 0.69709 0.644889 0.966228
49 3 0.323065 0.703183 0.999195
50 3 0.50851 0.852312 0.929532
51 1 0.525645 0.450021 0.119834
52 2 1.01497 0.693866 0.182898
53 3 0.196326 0.632783 0.181318
54 3 0.963202 0.763158 0.243201
55 3 0.861296 0.689158 0.133367
56 1 0.500233 0.892882 0.796268
57 2 -0.0160285 0.0243199 0.866074
58 3 0.0428559 -0.0186976 0.928747
59 3 0.131677 0.0137048 0.814377
60 3 0.789889 0.0763508 0.855593
ITEM: TIMESTEP
12000
ITEM: NUMBER OF ATOMS
60
ITEM: BOX BOUNDS pp pp pp
-1.7342619108944746e-01 5.2435261910898641e+00
-3.0038397315421506e-01 9.0820839731540985e+00
-5.7540785911608872e-01 1.7397407859114203e+01
ITEM: ATOMS id type xs ys zs
1 1 0.894148 0.419791 0.867674
2 2 0.498602 0.610293 0.433359
3 3 0.635428 0.645116 0.376272
4 3 0.343584 0.705351 0.460364
5 3 0.538882 0.493759 0.466636
6 1 1.00282 0.101283 0.682356
7 2 0.325261 0.369995 0.260991
8 3 0.417025 0.285655 0.207265
9 3 0.106287 0.408166 0.257233
10 3 0.456701 0.392986 0.318746
11 1 0.589144 0.168362 0.98182
12 2 0.0032915 0.0473954 0.391054
13 3 0.037512 0.0969489 0.324759
14 3 0.174836 0.0639416 0.436714
15 3 0.786719 0.0315369 0.413264
16 1 0.0276181 0.889249 0.519746
17 2 0.399795 0.284668 0.808036
18 3 0.339105 0.28437 0.736222
19 3 0.222202 0.300421 0.853527
20 3 0.630782 0.271613 0.826494
21 1 0.0223605 0.831873 0.0446604
22 2 0.550259 0.998256 0.130621
23 3 0.601072 0.0377567 0.195436
24 3 0.335696 0.95874 0.110565
25 3 0.702471 0.0183651 0.0840475
26 1 0.529107 0.233472 0.425654
27 2 0.922327 0.444054 0.0513186
28 3 0.144817 0.45509 0.0311332
29 3 0.878753 0.480725 0.117761
30 3 0.770602 0.368683 0.0159018
31 1 0.943893 0.46759 0.368115
32 2 1.00305 0.285192 0.545204
33 3 0.956823 0.299233 0.475103
34 3 0.814391 0.298973 0.584941
35 3 0.197737 0.241026 0.572447
36 1 0.491701 0.869001 0.30533
37 2 0.899451 0.640072 0.685724
38 3 0.822573 0.608445 0.75323
39 3 0.125867 0.692234 0.676154
40 3 0.749769 0.617317 0.636641
41 1 0.866972 0.226577 0.20293
42 2 0.554603 0.952405 0.632102
43 3 0.593422 0.927231 0.700568
44 3 0.727363 0.977478 0.58589
45 3 0.333441 0.972444 0.609316
46 1 0.482064 0.448248 0.618281
47 2 0.458995 0.656663 0.951145
48 3 0.613942 0.647653 0.00555363
49 3 0.308058 0.759582 0.953614
50 3 0.446441 0.585344 0.884782
51 1 0.441929 0.586972 0.139112
52 2 0.974508 0.770267 0.226698
53 3 0.165575 0.712536 0.19666
54 3 0.975104 0.79584 0.291841
55 3 0.800147 0.800546 0.183389
56 1 0.449998 0.812988 0.811142
57 2 0.0286163 0.023094 0.900284
58 3 0.806704 0.988951 0.906612
59 3 0.167563 0.0619375 0.949827
60 3 0.104939 -0.00296068 0.833584
ITEM: TIMESTEP
13000
ITEM: NUMBER OF ATOMS
60
ITEM: BOX BOUNDS pp pp pp
-1.7342619108944746e-01 5.2435261910898641e+00
-3.0038397315421506e-01 9.0820839731540985e+00
-5.7540785911608872e-01 1.7397407859114203e+01
ITEM: ATOMS id type xs ys zs
1 1 0.927438 0.535044 0.87286
2 2 0.407601 0.705476 0.470132
3 3 0.230959 0.647726 0.502908
4 3 0.603514 0.693404 0.499516
5 3 0.390854 0.741938 0.404437
6 1 0.936237 0.163001 0.695093
7 2 0.514566 0.415334 0.296675
8 3 0.640544 0.369695 0.246663
9 3 0.323474 0.478492 0.275522
10 3 0.5407 0.372829 0.361019
11 1 0.372608 0.133301 0.969917
12 2 0.986118 0.982644 0.365322
13 3 0.165313 0.933305 0.326521
14 3 0.91398 0.930849 0.424173
15 3 0.889822 0.0979879 0.341452
16 1 1.04018 0.876353 0.545779
17 2 0.426398 0.342827 0.793886
18 3 0.227528 0.31915 0.771251
19 3 0.45364 0.390291 0.860224
20 3 0.601727 0.325952 0.749207
21 1 1.029 0.818975 0.0539933
22 2 0.503357 0.0324093 0.136954
23 3 0.332868 0.0766688 0.179145
24 3 0.471775 1.01693 0.0707587
25 3 0.708064 -0.0141723 0.165201
26 1 0.655923 0.170014 0.441893
27 2 0.971094 0.33127 0.0401447
28 3 0.111537 0.356087 0.0980883
29 3 0.746833 0.297108 0.0459214
30 3 0.0388607 0.346828 0.974796
31 1 0.963648 0.568716 0.409645
32 2 1.0298 0.286803 0.547361
33 3 1.02613 0.282324 0.478748
34 3 0.840993 0.289674 0.587445
35 3 0.228005 0.299018 0.581899
36 1 0.383181 0.77496 0.273379
37 2 0.988546 0.6825 0.704557
38 3 0.764068 0.660098 0.691298
39 3 1.07872 0.669857 0.76999
40 3 0.138551 0.692404 0.649214
41 1 -0.0073603 0.2174 0.231578
42 2 0.519227 -0.00310951 0.605341
43 3 0.752419 0.999623 0.619313
44 3 0.467761 -0.0305811 0.541105
45 3 0.364406 -0.00247208 0.658547
46 1 0.47693 0.519299 0.62451
47 2 0.484896 0.648827 0.952732
48 3 0.271615 0.675307 0.981291
49 3 0.519881 0.701097 0.888439
50 3 0.668328 0.630613 0.989158
51 1 0.433296 0.485612 0.115321
52 2 0.946137 0.672462 0.20234
53 3 0.746147 0.669064 0.168562