ITEM: TIMESTEP
500000
ITEM: NUMBER OF ATOMS
60
ITEM: BOX BOUNDS pp pp pp
-2.3070111202802623e-01 5.3008011120273135e+00
-3.9958737608581885e-01 9.1812873760861748e+00
-7.6543936145922054e-01 1.7587439361459381e+01
ITEM: ATOMS id type xs ys zs
6 1 0.325324 0.169019 0.111808
8 3 0.924037 0.165293 0.0984985
10 3 0.0266612 0.115447 0.211117
7 2 0.868061 0.140393 0.163635
9 3 0.665336 0.170258 0.179008
49 3 0.363405 0.261935 0.0115422
46 1 0.79606 0.0270825 0.455564
33 3 0.445714 0.0759698 0.403164
32 2 0.31891 0.165314 0.383538
34 3 0.105476 0.144887 0.372129
35 3 0.401364 0.286561 0.373795
18 3 0.854005 0.326591 0.458805
51 1 0.341531 0.13764 0.597538
29 3 0.650304 0.0856403 0.691595
28 3 0.708738 0.0383904 0.581558
30 3 0.991435 0.135282 0.645445
27 2 0.793442 0.0737332 0.640895
19 3 0.566231 0.308256 0.532017
56 1 0.832619 0.289962 0.732945
21 1 0.888739 0.284391 0.990566
54 3 0.319837 0.175758 0.828247
52 2 0.30118 0.296549 0.837705
23 3 0.0436883 0.633917 0.167908
24 3 0.692839 0.570218 0.146154
22 2 0.883465 0.537993 0.161511
25 3 0.952418 0.414053 0.170857
41 1 0.347774 0.660207 0.0873186
48 3 0.23333 0.472193 0.00837895
20 3 0.644694 0.51611 0.486236
1 1 0.776636 0.363376 0.320246
26 1 0.193433 0.559032 0.432628
4 3 0.931189 0.615078 0.329422
17 2 0.653952 0.381611 0.482127
5 3 0.586229 0.650246 0.297813
39 3 0.4569 0.428407 0.664376
38 3 0.0969727 0.483181 0.708129
40 3 0.128819 0.432126 0.596786
36 1 0.764501 0.557955 0.59747
37 2 0.231531 0.450663 0.657516
55 3 0.472016 0.372658 0.820715
47 2 0.40586 0.384439 0.998093
50 3 0.582422 0.422806 0.961284
11 1 0.284373 0.586946 0.867885
53 3 0.114196 0.35048 0.854724
13 3 0.369825 0.973678 0.0357893
59 3 0.105458 0.764687 0.485019
3 3 0.842918 0.833946 0.319959
31 1 0.388392 0.886489 0.318473
57 2 0.282074 0.857755 0.488019
2 2 0.785849 0.701589 0.304534
60 3 0.449413 0.835149 0.449671
58 3 0.217124 0.96203 0.516337
45 3 0.792559 0.706867 0.708428
42 2 0.80894 0.75535 0.770267
15 3 0.331962 0.779352 0.974766
44 3 0.00939769 0.750684 0.803709
16 1 0.357984 0.963179 0.823042
43 3 0.620377 0.80384 0.806484
12 2 0.282565 0.911663 0.984708
14 3 0.209786 0.974069 0.928948
ITEM: TIMESTEP
501000
ITEM: NUMBER OF ATOMS
60
ITEM: BOX BOUNDS pp pp pp
-2.3070111202802623e-01 5.3008011120273135e+00
-3.9958737608581885e-01 9.1812873760861748e+00
-7.6543936145922054e-01 1.7587439361459381e+01
ITEM: ATOMS id type xs ys zs
6 1 0.627329 0.0457051 0.078467
47 2 -0.0204307 0.286695 0.0124457
48 3 0.781279 0.231319 0.0284478
35 3 0.123045 0.106836 0.34013
33 3 0.357634 0.277373 0.362072
32 2 0.334191 0.14418 0.359858
46 1 0.856145 0.00247368 0.41661
58 3 0.218647 -0.0250815 0.491939
34 3 0.531764 0.073641 0.371494
51 1 0.307989 0.188946 0.562306
29 3 0.57166 0.102723 0.634846
27 2 0.787772 0.144856 0.645149
30 3 0.826722 0.237594 0.692698
28 3 0.968699 0.0821555 0.611462
55 3 0.260532 0.286805 0.824101
49 3 0.111784 0.231927 0.964135
16 1 0.25379 0.0913767 0.76968
41 1 0.0977065 0.604095 0.111516
24 3 0.362147 0.506352 0.212869
22 2 0.607047 0.504156 0.225161
25 3 0.718081 0.419982 0.190094
50 3 0.0752955 0.383503 0.0462722
23 3 0.706164 0.618586 0.237
4 3 0.0757416 0.617089 0.359756
5 3 0.763082 0.484797 0.344789
26 1 0.365376 0.553909 0.428499
2 2 0.862781 0.598099 0.360285
1 1 0.0437777 0.351206 0.288688
39 3 0.360689 0.475067 0.645826
17 2 0.854351 0.414408 0.511981
37 2 0.221097 0.583375 0.630674
20 3 0.854763 0.546478 0.516154
18 3 0.066801 0.349134 0.515091
56 1 0.695975 0.452924 0.729981
40 3 0.998363 0.575992 0.647425
19 3 0.651858 0.359536 0.518888
54 3 0.0287061 0.479544 0.805549
53 3 0.346969 0.481844 0.876528
21 1 0.479103 0.35281 0.965648
52 2 0.213786 0.413881 0.837212
8 3 0.211861 0.815035 0.18397
7 2 0.126035 0.9225 0.151115
10 3 0.24959 0.993884 0.105604
9 3 0.905671 0.961792 0.167244
59 3 0.317189 0.793116 0.414737
3 3 0.750366 0.710604 0.379103
31 1 0.44261 0.768318 0.275641
57 2 0.360964 0.896136 0.458102
60 3 0.599346 0.913142 0.477604
38 3 0.300189 0.686033 0.58982
36 1 0.894886 0.771751 0.568527
42 2 0.676168 0.82578 0.79882
15 3 0.423874 0.7015 0.967673
44 3 0.891656 0.87673 0.799704
45 3 0.482257 0.901715 0.783954
43 3 0.659598 0.701385 0.807354
12 2 0.596986 0.76251 0.993675
11 1 0.213625 0.721744 0.860246
14 3 0.60943 0.894936 0.988286
13 3 0.768697 0.72 1.03007
ITEM: TIMESTEP
502000
ITEM: NUMBER OF ATOMS
60
ITEM: BOX BOUNDS pp pp pp
-2.3070111202802623e-01 5.3008011120273135e+00
-3.9958737608581885e-01 9.1812873760861748e+00
-7.6543936145922054e-01 1.7587439361459381e+01
ITEM: ATOMS id type xs ys zs
6 1 0.399036 0.0459601 0.0959186
49 3 0.0651279 0.241814 0.0320443
48 3 0.668772 0.213513 0.0511763
8 3 0.787713 0.103756 0.186168
47 2 0.862207 0.294377 0.0448428
1 1 0.754261 0.325212 0.262698
35 3 0.231011 0.0729312 0.299592
46 1 0.905819 -0.0331803 0.37146
32 2 0.329679 0.189905 0.322428
34 3 0.561138 0.18692 0.330035
33 3 0.199379 0.274891 0.353446
51 1 0.367073 0.240711 0.543386
29 3 0.778171 0.142107 0.636423
27 2 0.97153 0.0790964 0.628519
30 3 0.164425 0.146036 0.635237
16 1 0.437119 0.117097 0.762505
44 3 0.140539 0.0234153 0.826779
41 1 0.829501 0.642298 0.117684
24 3 0.0697827 0.491115 0.182875
22 2 0.283194 0.440567 0.178449
23 3 0.432849 0.494837 0.132339
25 3 0.395536 0.377994 0.235155
50 3 0.836949 0.428401 0.0367826
21 1 0.355824 0.419868 -0.00400064
5 3 0.710284 0.595049 0.275983
26 1 0.346447 0.51576 0.397536
2 2 0.850358 0.647387 0.322889
4 3 -0.0530794 0.559339 0.37008
19 3 0.635593 0.355487 0.470521
39 3 0.73586 0.578861 0.67246
38 3 0.407565 0.459894 0.676327
37 2 0.532662 0.560519 0.692129
56 1 0.012876 0.429873 0.716425
17 2 0.826487 0.413794 0.502411
20 3 0.00704715 0.349421 0.521213
18 3 0.817177 0.539976 0.522719
40 3 0.454322 0.642097 0.738875
55 3 0.161143 0.382683 0.843397
52 2 0.390864 0.39837 0.84206
54 3 0.502206 0.451046 0.892478
53 3 0.499084 0.336948 0.792323
13 3 0.158113 0.742264 0.0564571
10 3 0.753933 0.87287 0.200444
9 3 0.0914669 0.968672 0.160317
12 2 0.371642 0.741036 0.0375146
15 3 0.504958 0.794633 0.0924211
7 2 0.879536 0.98118 0.185909
31 1 0.348814 0.733374 0.227638
59 3 0.533683 0.795429 0.395103
3 3 0.932671 0.763741 0.31439
58 3 0.324133 0.739385 0.489363
57 2 0.388649 0.840105 0.443885
60 3 0.291696 0.961631 0.454802
36 1 0.924002 0.714895 0.580266
28 3 0.940283 0.95265 0.621852
42 2 0.966726 0.941028 0.81848
45 3 0.749332 0.983252 0.814334
11 1 0.552106 0.761501 0.850258
43 3 1.01574 0.815008 0.804439
14 3 0.462122 0.696387 0.976263
ITEM: TIMESTEP
503000
ITEM: NUMBER OF ATOMS
60
ITEM: BOX BOUNDS pp pp pp
-2.3070111202802623e-01 5.3008011120273135e+00
-3.9958737608581885e-01 9.1812873760861748e+00
-7.6543936145922054e-01 1.7587439361459381e+01
ITEM: ATOMS id type xs ys zs
6 1 0.0399304 0.0730015 0.053267
9 3 0.763419 0.0260924 0.153469
47 2 0.520266 0.252701 0.037447
49 3 0.751475 0.263013 0.0176163
48 3 0.440706 0.128518 0.0222078
10 3 0.0684974 0.0221737 0.229188
34 3 0.742199 0.149066 0.332296
35 3 0.365721 0.107281 0.324896
32 2 0.526585 0.194179 0.332658
33 3 0.461764 0.325259 0.337751
46 1 0.0196941 0.0276681 0.41545
19 3 0.860926 0.262278 0.496252
59 3 0.375166 0.0528145 0.462677
1 1 0.0152128 0.320711 0.295265
51 1 0.526119 0.166274 0.579303
29 3 0.939295 0.0575035 0.675262
27 2 0.142038 0.0582739 0.648158
30 3 0.333556 0.118048 0.678873
18 3 0.916965 0.305233 0.605682
17 2 1.00035 0.29646 0.544811
28 3 0.173452 0.00978487 0.585895
44 3 0.0811495 0.0768921 0.835156
16 1 0.605961 0.0929897 0.767557
53 3 0.41991 0.267262 0.807417
52 2 0.523547 0.335288 0.852973
50 3 0.383336 0.356913 0.0380122
24 3 0.00800926 0.513176 0.198196
22 2 0.035761 0.567752 0.138658
23 3 0.862526 0.569848 0.096212
41 1 0.439147 0.618653 0.0228199
25 3 0.185886 0.655827 0.129257
3 3 0.143559 0.568634 0.390781
26 1 0.490197 0.489666 0.450152
4 3 0.809518 0.622704 0.436573
2 2 0.98486 0.660557 0.404134
39 3 0.694477 0.633401 0.661314
38 3 0.396318 0.602084 0.588411
37 2 0.487975 0.576931 0.650159
56 1 0.075611 0.371408 0.738387
40 3 0.38752 0.490501 0.692844
20 3 0.226891 0.322589 0.531961
55 3 0.40919 0.410391 0.892397
14 3 0.0862876 0.615436 0.94595
54 3 0.752083 0.33514 0.851078
21 1 0.0146845 0.386042 0.941527
8 3 0.875194 0.840194 0.219023
7 2 0.887752 0.964239 0.2025
60 3 0.3816 0.82931 0.486324
31 1 0.299558 0.807169 0.262149
57 2 0.479077 0.93937 0.487417
5 3 0.0185759 0.792037 0.394689
36 1 0.957113 0.763757 0.56929
58 3 0.670531 0.939959 0.522878
42 2 0.140909 0.963876 0.806021
45 3 0.978587 0.868983 0.793703
11 1 0.62054 0.726164 0.799274
43 3 0.372166 0.931473 0.79663
15 3 0.0193183 0.836816 0.968167
12 2 0.961224 0.726924 0.940943
13 3 0.764257 0.720168 0.911769
ITEM: TIMESTEP
504000
ITEM: NUMBER OF ATOMS
60
ITEM: BOX BOUNDS pp pp pp
-2.3070111202802623e-01 5.3008011120273135e+00
-3.9958737608581885e-01 9.1812873760861748e+00
-7.6543936145922054e-01 1.7587439361459381e+01
ITEM: ATOMS id type xs ys zs
48 3 0.472894 0.177024 0.0173195
47 2 0.569327 0.285833 -0.000714432
49 3 0.772505 0.280127 -0.0197823
35 3 0.261249 0.127296 0.275424
34 3 0.479839 0.0408817 0.355779
20 3 0.225898 0.295939 0.453563
32 2 0.41653 0.141249 0.322998
33 3 0.516035 0.265418 0.323381
1 1 0.964547 0.323942 0.268437
51 1 0.488898 0.24823 0.569546
29 3 0.770698 0.205327 0.670047
27 2 0.940108 0.113034 0.68171
30 3 0.154262 0.132154 0.663124
58 3 0.468527 0.0592109 0.517403
44 3 0.157461 0.0509842 0.9249
55 3 0.488495 0.320147 0.784467
21 1 0.126544 0.294149 0.927599
25 3 0.270475 0.664739 0.179908
24 3 0.0736956 0.467944 0.187559
22 2 0.27001 0.533764 0.177862
23 3 0.47927 0.466095 0.170513
41 1 0.746328 0.544149 0.101145
4 3 0.142206 0.621264 0.45994
26 1 0.5266 0.502114 0.421984
18 3 0.855932 0.302267 0.509667
3 3 0.226347 0.636958 0.347132
19 3 0.917456 0.402948 0.398366
2 2 0.0784202 0.652952 0.396636
17 2 1.00789 0.328546 0.453393
40 3 0.445842 0.47248 0.603058
38 3 0.720039 0.627 0.637355
37 2 0.499351 0.595305 0.624823
56 1 0.183087 0.470635 0.739569
54 3 0.864194 0.39718 0.809491
52 2 0.622623 0.418595 0.811008
53 3 0.50757 0.51682 0.837373
50 3 0.437291 0.391917 0.994318
14 3 0.917859 0.53807 0.994996
10 3 0.593693 0.909764 0.134929
7 2 0.783964 0.916411 0.172554
8 3 -0.00399302 0.911158 0.152107
15 3 0.181499 0.711689 -0.0374888
12 2 0.983914 0.665627 -0.0175949
13 3 0.820622 0.752817 -0.00893383
6 1 0.327068 0.987409 0.0660683
9 3 0.751043 0.925764 0.244171
59 3 0.513062 0.843493 0.485133
31 1 0.317722 0.833531 0.239523
5 3 0.888482 0.72197 0.381794
46 1 0.804043 1.01776 0.402981
36 1 0.964912 0.756238 0.566696
28 3 0.870893 1.00254 0.714649
57 2 0.374168 0.951076 0.495294
60 3 0.153953 0.939246 0.489394
39 3 0.333002 0.652047 0.655865
11 1 0.484807 1.05488 0.752397
42 2 1.05194 0.961719 0.886765
45 3 0.825577 0.943483 0.890706
16 1 0.496372 0.771027 0.912062
43 3 0.176679 0.885176 0.843492
ITEM: TIMESTEP
505000
ITEM: NUMBER OF ATOMS
60
ITEM: BOX BOUNDS pp pp pp
-2.3070111202802623e-01 5.3008011120273135e+00
-3.9958737608581885e-01 9.1812873760861748e+00
-7.6543936145922054e-01 1.7587439361459381e+01
ITEM: ATOMS id type xs ys zs
50 3 0.362445 0.259241 0.0771359
1 1 0.195311 0.304098 0.180996
35 3 0.160949 0.133047 0.321673
46 1 0.873807 0.0861981 0.428083
32 2 0.337384 0.0652985 0.352265
33 3 0.359485 0.0788638 0.424397
28 3 0.133975 0.191886 0.612588
29 3 0.0435753 0.148767 0.720492
27 2 0.171701 0.124705 0.670633
30 3 0.359434 0.0463743 0.683157
51 1 0.406599 0.264882 0.523358
54 3 0.671668 0.274661 0.827487
21 1 0.752651 0.091663 0.92857
44 3 0.227136 0.109298 0.942101
42 2 0.246618 0.0250363 0.888208
48 3 0.561143 0.323279 0.979403
11 1 0.629208 0.0602018 0.753868
25 3 0.66046 0.551052 0.11248
23 3 0.845407 0.404669 0.184487
22 2 0.679308 0.496075 0.170784
41 1 0.895448 0.492451 0.00180346
24 3 0.534991 0.533766 0.222339
47 2 0.382468 0.340742 0.0147223
49 3 0.291793 0.458376 0.00415369
17 2 0.910882 0.457133 0.48057
19 3 0.69806 0.461125 0.472824
18 3 0.0242681 0.347964 0.468805
36 1 0.746185 0.593475 0.612316
38 3 0.370706 0.55146 0.737705
39 3 0.0392835 0.517056 0.669295
37 2 0.281052 0.51391 0.677502
40 3 0.414001 0.479479 0.624108
20 3 0.0121403 0.557039 0.513627
56 1 0.961565 0.433491 0.785418
53 3 0.64389 0.472173 0.856535
52 2 0.531355 0.362089 0.851504
55 3 0.306032 0.378519 0.834321
10 3 0.696185 0.97833 0.0591987
7 2 0.696855 0.894563 0.116064
8 3 0.882841 0.826507 0.119297
9 3 0.539012 0.888097 0.164123
6 1 0.182828 0.925176 0.0549747
31 1 0.379751 0.76914 0.244102
5 3 0.727069 0.694803 0.349416
3 3 0.113898 0.725041 0.329696
4 3 0.927502 0.836744 0.413708
2 2 0.915529 0.765988 0.355482
26 1 0.429369 0.70031 0.461684
34 3 0.433499 0.96224 0.323814
59 3 0.584033 0.872882 0.537539
57 2 0.789936 0.904041 0.564602
58 3 0.841974 0.850504 0.626485
60 3 0.90696 1.00753 0.537967
14 3 0.691225 0.808082 0.937383
12 2 0.866278 0.743627 0.915542
16 1 0.314706 0.680664 0.830739
43 3 0.439896 0.989733 0.867961
13 3 0.888198 0.706793 0.848033
15 3 0.0469573 0.718891 0.960207
45 3 0.0590214 0.980146 0.863568
ITEM: TIMESTEP
506000
ITEM: NUMBER OF ATOMS
60
ITEM: BOX BOUNDS pp pp pp
-2.3070111202802623e-01 5.3008011120273135e+00
-3.9958737608581885e-01 9.1812873760861748e+00
-7.6543936145922054e-01 1.7587439361459381e+01
ITEM: ATOMS id type xs ys zs
49 3 0.910293 0.216024 0.015158
48 3 0.225538 0.163732 0.0920475
47 2 0.030917 0.228956 0.0779507
1 1 0.155072 0.248073 0.232697
34 3 0.543932 0.0364287 0.235655
21 1 0.476314 0.142318 0.00237727
50 3 0.955393 0.315607 0.123492
35 3 0.461281 0.0692614 0.344935
46 1 0.100984 0.115907 0.420187
32 2 0.606169 0.0906775 0.294992
33 3 0.812218 0.15176 0.299173
19 3 0.905522 0.324567 0.493719
18 3 0.28371 0.321259 0.467188
28 3 0.555952 0.270701 0.722421
29 3 0.274251 0.301609 0.650061
27 2 0.340543 0.278495 0.714028
51 1 0.690707 0.229623 0.59654
60 3 0.567051 0.0333408 0.633697
56 1 0.928799 0.321235 0.852076
30 3 0.204188 0.210987 0.76122
45 3 0.875824 0.0648301 0.863951
44 3 0.237919 0.0228227 0.911549
42 2 0.0777675 0.00999202 0.861351
11 1 0.576074 0.0222639 0.754975
41 1 0.873397 0.514698 0.0405235
23 3 0.510343 0.512338 0.203593
53 3 0.498509 0.487381 0.0254478
26 1 0.675453 0.476071 0.437171
24 3 0.787649 0.488764 0.279844
25 3 0.45029 0.412564 0.305317
22 2 0.583329 0.477595 0.267077
38 3 0.374823 0.638799 0.616884
37 2 0.585419 0.64465 0.604679
39 3 0.688545 0.553837 0.561318
20 3 0.153216 0.486799 0.536582
17 2 0.115897 0.377484 0.503111
55 3 0.168727 0.441181 0.95433
14 3 0.740275 0.601712 0.882214
52 2 0.38748 0.420143 0.971078
15 3 0.00222888 0.634744 0.802606
54 3 0.502111 0.33546 0.937942
31 1 0.52417 0.786066 0.218669
7 2 0.781443 0.846555 0.0150616
8 3 0.693313 0.800981 0.0727446
10 3 0.99871 0.807027 0.00413563
5 3 0.768596 0.830224 0.318035
2 2 0.811089 0.796984 0.381573
4 3 0.925664 0.879997 0.427024
3 3 0.73732 0.687656 0.413095
59 3 0.396394 0.980176 0.523967
57 2 0.383129 0.998494 0.588813
58 3 0.190381 0.957839 0.616217
36 1 0.0629827 0.727805 0.533506
16 1 0.168739 0.754363 0.70794
40 3 0.697796 0.737511 0.637749
6 1 0.360271 0.777737 0.901638
9 3 0.62179 0.897529 0.97227
43 3 0.134227 0.931624 0.809206
13 3 0.700922 0.789472 0.815528
12 2 0.829749 0.681085 0.837358
ITEM: TIMESTEP
507000
ITEM: NUMBER OF ATOMS
60
ITEM: BOX BOUNDS pp pp pp
-2.3070111202802623e-01 5.3008011120273135e+00
-3.9958737608581885e-01 9.1812873760861748e+00
-7.6543936145922054e-01 1.7587439361459381e+01
ITEM: ATOMS id type xs ys zs
1 1 0.375372 0.240014 0.22784
50 3 0.120087 0.202972 0.117891
49 3 0.765694 0.216638 0.0809223
21 1 0.478729 0.0926342 0.0152533
47 2 0.925812 0.138561 0.103346
48 3 0.905119 0.00650407 0.103004
35 3 0.68081 0.0523157 0.364162
46 1 0.315252 0.0291463 0.422573
32 2 0.849766 0.0317924 0.32217
33 3 0.0368315 0.0983498 0.329219
19 3 0.0915296 0.265838 0.469333
59 3 0.629995 0.096489 0.592672
57 2 0.446284 0.0183083 0.602107
51 1 0.796892 0.331529 0.605709
60 3 0.3424 0.0200337 0.666735
11 1 0.353065 0.126115 0.792197
43 3 0.953338 0.102221 0.819655
45 3 0.645474 0.139303 0.895856
53 3 0.153044 0.308016 0.968177
42 2 0.847062 0.0736154 0.881351
22 2 0.865178 0.403312 0.206452
23 3 0.83043 0.465231 0.145339
24 3 0.0836772 0.381894 0.230585
41 1 0.740163 0.464774 0.0170351
26 1 0.645573 0.496329 0.35961
17 2 0.240734 0.364515 0.466216
4 3 0.353645 0.640196 0.304425
25 3 0.678829 0.386323 0.249509
18 3 0.441117 0.360952 0.426225
20 3 0.145582 0.477542 0.487399
27 2 0.189258 0.456658 0.733077
29 3 0.012623 0.38242 0.714051
39 3 0.723335 0.567541 0.583345
28 3 0.402624 0.408625 0.725729
37 2 0.705218 0.659531 0.624297
52 2 0.227057 0.388433 0.924604
56 1 0.669364 0.525565 0.805648
54 3 0.458435 0.394132 0.909171
55 3 0.0870718 0.43826 0.878869
30 3 0.159074 0.577736 0.761988
9 3 0.398242 0.611111 1.00608
31 1 0.87433 0.718759 0.188796
10 3 0.708869 0.693903 0.0549228
8 3 0.370144 0.771101 0.0995951
7 2 0.486165 0.694604 0.0543196
5 3 0.965173 0.665362 0.327329
2 2 0.190851 0.684715 0.350445
3 3 0.231468 0.726879 0.410585
34 3 0.828263 0.937485 0.274251
38 3 0.497727 0.71717 0.648315
16 1 0.163318 0.826973 0.735421
58 3 0.332171 0.954661 0.550547
36 1 0.211563 0.713825 0.522249
40 3 0.910874 0.716217 0.640311
6 1 0.0248424 0.789335 0.977554
12 2 0.55472 0.810887 0.871018
14 3 0.643144 0.688751 0.873909
13 3 0.503724 0.854398 0.808214
15 3 0.485711 0.88111 0.925845
44 3 0.903105 0.956143 0.907435
ITEM: TIMESTEP
508000
ITEM: NUMBER OF ATOMS
60
ITEM: BOX BOUNDS pp pp pp
-2.3070111202802623e-01 5.3008011120273135e+00
-3.9958737608581885e-01 9.1812873760861748e+00
-7.6543936145922054e-01 1.7587439361459381e+01
ITEM: ATOMS id type xs ys zs
1 1 0.317955 0.13913 0.190624
50 3 0.988727 0.143285 0.0747022
49 3 0.618962 0.225328 0.0945245
47 2 0.759081 0.125869 0.0727962
48 3 0.640003 0.0286908 0.0352316
35 3 0.692439 0.213389 0.374184
46 1 0.289329 0.0955419 0.416748
32 2 0.768137 0.166138 0.312697
33 3 0.993132 0.117266 0.316744
19 3 0.255356 0.31145 0.483146
34 3 0.617087 0.105262 0.268019
59 3 0.253955 -0.00527459 0.628365
57 2 0.270178 0.0260948 0.561851
51 1 0.799001 0.215768 0.539532
58 3 0.474531 0.0492478 0.538953
60 3 0.114634 0.0153942 0.515187
29 3 0.064281 0.300573 0.65127
28 3 0.425593 0.300329 0.691078
11 1 0.401819 0.102072 0.739193
52 2 0.394137 0.324857 0.879462
53 3 0.45862 0.315195 0.940883
54 3 0.528285 0.297583 0.827525
44 3 0.87736 0.0184963 0.91293
21 1 0.242345 0.0852531 0.956607
43 3 0.0812665 0.09035 0.826864
45 3 0.711026 0.0261997 0.807775
42 2 0.887671 0.0501241 0.846863
9 3 0.326601 0.651299 0.101286
41 1 0.250308 0.398562 0.0459995
22 2 0.0864478 0.429645 0.238868
24 3 0.112409 0.391735 0.173813
26 1 0.689527 0.467367 0.371835
17 2 0.309544 0.43022 0.488868
20 3 0.154787 0.534036 0.47954
18 3 0.52544 0.45698 0.48903
25 3 0.209204 0.366454 0.284258
23 3 0.936464 0.506154 0.261296
27 2 0.22851 0.363691 0.685458
30 3 0.166561 0.486998 0.7108
38 3 0.692948 0.630435 0.73103
15 3 -0.0150432 0.672003 0.892389
56 1 0.876998 0.430397 0.812428
55 3 0.178254 0.367989 0.871152
31 1 0.852826 0.787249 0.258356
10 3 0.498826 0.822401 0.150669
8 3 0.0871492 0.822573 0.143978
7 2 0.292677 0.765372 0.130516
6 1 0.79888 0.790892 0.0294857
5 3 0.276152 0.86348 0.291623
2 2 0.390933 0.802437 0.341247
3 3 0.402151 0.848612 0.404
4 3 0.532781 0.691675 0.328365
37 2 0.759138 0.689211 0.668848
16 1 0.31351 0.694493 0.742459
39 3 0.59742 0.743923 0.627175
36 1 0.230086 0.741489 0.539399
40 3 0.964808 0.697823 0.643026
14 3 0.222163 0.775868 0.964427
13 3 0.387231 0.709552 0.863155
12 2 0.190622 0.728985 0.903151
ITEM: TIMESTEP
509000
ITEM: NUMBER OF ATOMS
60
ITEM: BOX BOUNDS pp pp pp
-2.3070111202802623e-01 5.3008011120273135e+00
-3.9958737608581885e-01 9.1812873760861748e+00
-7.6543936145922054e-01 1.7587439361459381e+01
ITEM: ATOMS id type xs ys zs
1 1 0.233466 0.195505 0.200697
48 3 0.91656 0.320552 0.141463
49 3 0.578527 0.310107 0.0890443
10 3 0.157183 0.00520623 0.0781863
35 3 0.5968 0.204209 0.305694
33 3 0.981825 0.171993 0.314458
32 2 0.77478 0.119074 0.306972
19 3 0.306169 0.22905 0.426102
46 1 0.326672 0.0205706 0.384707
28 3 0.51538 0.244148 0.656115
27 2 0.341131 0.236788 0.693599
51 1 0.752533 0.225412 0.576887
29 3 0.146267 0.183789 0.676094
30 3 0.332598 0.319187 0.747427
60 3 0.924573 0.0157069 0.586279
43 3 0.00416138 0.0749207 0.915014
21 1 0.345233 0.0736542 0.976278
42 2 0.819532 0.0195563 0.883188
56 1 0.0269736 0.3113 0.825622
53 3 0.329441 0.309789 0.935559
45 3 0.818456 0.0220155 0.815875
41 1 0.252888 0.565395 0.070214
50 3 0.778186 0.50609 0.0854913
24 3 0.307503 0.608322 0.214352
47 2 0.750335 0.38876 0.10866
26 1 0.779398 0.438268 0.369677
17 2 0.263804 0.360558 0.450164
23 3 0.966648 0.580142 0.259707
25 3 0.254044 0.43914 0.293124
18 3 0.453133 0.434022 0.447687
22 2 0.194567 0.55434 0.262813
20 3 0.0630489 0.398147 0.474321
40 3 0.982646 0.624017 0.606817
39 3 0.575438 0.558077 0.596073
37 2 0.748455 0.623177 0.626027
16 1 0.335679 0.55995 0.703342
54 3 0.443997 0.526848 0.968945
55 3 0.669091 0.394445 0.895567
52 2 0.468343 0.415027 0.930042
15 3 0.133039 0.563817 0.805655
14 3 0.056787 0.648828 0.910099
12 2 0.202578 0.642687 0.857608
9 3 0.0328497 0.80458 0.124345
7 2 0.159648 0.912016 0.128052
31 1 0.803147 0.788638 0.247953
8 3 0.251136 0.937669 0.192416
5 3 0.944434 0.7842 0.373062
2 2 0.731638 0.803076 0.388353
3 3 0.66832 0.833189 0.455087
4 3 0.574676 0.75773 0.348629
34 3 0.771015 1.00047 0.284311
58 3 0.144454 0.996751 0.488702
11 1 0.65183 0.936232 0.690981
59 3 0.240049 0.887194 0.588522
57 2 0.115887 0.971997 0.555727
36 1 0.28118 0.693309 0.499367
38 3 0.70211 0.686072 0.677161
44 3 0.661679 0.963427 0.919372
13 3 0.395245 0.720407 0.851753
6 1 0.695655 0.723859 0.955559
ITEM: TIMESTEP
510000
ITEM: NUMBER OF ATOMS
60
ITEM: BOX BOUNDS pp pp pp
-2.3070111202802623e-01 5.3008011120273135e+00
-3.9958737608581885e-01 9.1812873760861748e+00
-7.6543936145922054e-01 1.7587439361459381e+01
ITEM: ATOMS id type xs ys zs
1 1 0.058806 0.142465 0.164562
33 3 0.712445 -0.0100185 0.220808
35 3 0.428476 0.140477 0.214324
32 2 0.509438 0.0301613 0.238519
26 1 0.742548 0.304956 0.334843
18 3 0.729417 0.209624 0.486073
20 3 0.335434 0.191503 0.483119
30 3 0.653845 0.233778 0.723296
27 2 0.504314 0.329508 0.728162
51 1 1.0399 0.282077 0.596476
19 3 0.513584 0.344861 0.551307
58 3 1.0632 0.0461465 0.597519
17 2 0.528469 0.251694 0.509989
43 3 0.0426617 0.197303 0.859553
21 1 0.356877 0.159398 0.94453
44 3 0.718556 0.129131 0.920737
42 2 0.869234 0.120226 0.868963
41 1 0.142904 0.510797 0.137268
50 3 0.599384 0.432085 0.218369
49 3 0.50712 0.412953 0.108482
47 2 0.65809 0.378647 0.15688
48 3 0.86874 0.330959 0.141243
25 3 0.0987781 0.374916 0.298905
36 1 0.309931 0.628694 0.476948
24 3 0.315168 0.470143 0.386011
22 2 0.249194 0.473355 0.32014
4 3 0.774703 0.624822 0.332708
23 3 0.27164 0.582224 0.279917
40 3 0.910511 0.574371 0.554446
39 3 0.562061 0.661104 0.555055
37 2 0.769397 0.655249 0.579529
28 3 0.593078 0.454174 0.734744
29 3 0.284231 0.324965 0.749075
54 3 0.573604 0.563104 0.893076
55 3 0.486713 0.374908 0.943254
52 2 0.416847 0.484357 0.917072
56 1 0.94057 0.43308 0.831273
53 3 0.201262 0.524572 0.907974
9 3 0.695161 0.833417 0.0647714
7 2 0.875523 0.846297 0.109496
8 3 0.913255 0.738334 0.14591
10 3 0.0234199 0.955754 0.110367
31 1 0.570414 0.712747 0.241432
5 3 0.0752036 0.749918 0.38438
2 2 0.860625 0.738554 0.360898
3 3 0.736258 0.851464 0.353373
34 3 0.372069 0.957256 0.282206
46 1 0.326519 0.978023 0.410416
57 2 0.0883527 0.914941 0.586423
59 3 0.16628 0.860363 0.649809
60 3 0.181274 0.85954 0.529016
38 3 0.818015 0.71812 0.641787
11 1 0.765867 0.95987 0.723437
16 1 0.279258 0.649505 0.677105
12 2 0.293188 0.77684 0.819705
6 1 0.725675 0.789346 0.912362
13 3 0.500867 0.791835 0.786614
14 3 0.255788 0.8537 0.877169
15 3 0.111196 0.71446 0.797709
45 3 0.862421 1.00622 0.834154
ITEM: TIMESTEP
511000
ITEM: NUMBER OF ATOMS
60
ITEM: BOX BOUNDS pp pp pp
-2.3070111202802623e-01 5.3008011120273135e+00
-3.9958737608581885e-01 9.1812873760861748e+00
-7.6543936145922054e-01 1.7587439361459381e+01
ITEM: ATOMS id type xs ys zs
1 1 1.0186 0.0962292 0.207938
35 3 0.581575 0.081981 0.177802
49 3 0.720052 0.310195 0.0662808
21 1 0.432791 0.168866 0.0181326
20 3 0.569573 0.18174 0.438652
17 2 0.383745 0.256644 0.458156
19 3 0.175617 0.206703 0.477674
34 3 0.404039 0.0394143 0.281556
57 2 0.383863 0.0318125 0.649448
58 3 0.210331 0.0377263 0.691564
51 1 0.886681 0.1726 0.60621
59 3 0.605761 0.0413117 0.673685
30 3 0.51952 0.275424 0.612386
43 3 0.898882 0.0644319 0.969724
45 3 0.875976 0.130458 0.855666
44 3 0.201541 0.162214 0.92063
42 2 0.99962 0.108915 0.913486
56 1 0.540679 0.275705 0.832074
41 1 0.259486 0.582189 0.0256027
48 3 0.648144 0.510472 0.0986958
47 2 0.798248 0.425885 0.0732615
23 3 0.170976 0.602609 0.24877
50 3 1.01963 0.442765 0.073789
31 1 0.753367 0.648977 0.220705
18 3 0.414903 0.391857 0.448147
4 3 0.749862 0.578672 0.396524
24 3 0.43548 0.442384 0.296898
22 2 0.219049 0.473916 0.268095
26 1 0.76503 0.365627 0.360599
25 3 0.0770572 0.378708 0.254045
40 3 0.805647 0.65824 0.585707
28 3 0.476029 0.372122 0.717861
27 2 0.386971 0.317825 0.664062
29 3 0.168703 0.360509 0.653916
16 1 0.18114 0.575481 0.723455
36 1 0.312195 0.578811 0.505575
54 3 0.00755413 0.421924 0.80629
55 3 0.172907 0.459344 0.917139
52 2 -0.00238013 0.443987 0.87516
53 3 0.775856 0.438856 0.904933
9 3 0.145773 0.81814 0.0145967
7 2 0.0852377 0.899936 0.0690405
8 3 0.919538 0.861725 0.109705
10 3 0.181021 1.01286 0.0828888
32 2 0.540096 1.00325 0.23352
5 3 1.00831 0.754477 0.414901
2 2 0.795225 0.707818 0.411173
3 3 0.615082 0.780374 0.425413
46 1 0.226344 0.959557 0.443587
33 3 0.662641 0.892655 0.24102
39 3 0.509192 0.685581 0.655682
37 2 0.737409 0.671277 0.646639
38 3 0.873837 0.723911 0.696952
60 3 0.343184 1.0391 0.58198
11 1 0.880009 0.958244 0.766171
12 2 0.388749 0.790799 0.869233
6 1 0.840683 0.757156 0.936289
13 3 0.567922 0.842204 0.836006
15 3 0.183247 0.838627 0.847091
14 3 0.412068 0.714332 0.917976
ITEM: TIMESTEP
512000
ITEM: NUMBER OF ATOMS
60
ITEM: BOX BOUNDS pp pp pp
-2.3070111202802623e-01 5.3008011120273135e+00
-3.9958737608581885e-01 9.1812873760861748e+00
-7.6543936145922054e-01 1.7587439361459381e+01
ITEM: ATOMS id type xs ys zs
35 3 0.776096 0.019634 0.193912
21 1 0.636709 0.172224 0.0719669
43 3 0.15402 0.154848 0.0204549
32 2 0.723088 0.0448963 0.262018
19 3 0.314382 0.272281 0.409444
33 3 0.853249 0.125282 0.297728
34 3 0.520082 -0.00700084 0.285696
46 1 0.354949 -0.0148485 0.405706
1 1 0.17977 0.297248 0.268571
27 2 0.672613 0.21955 0.663053
28 3 0.707541 0.152176 0.721567
51 1 0.1819 0.240207 0.550147
30 3 0.851652 0.263895 0.623004
29 3 0.467278 0.214917 0.634464
45 3 0.828099 0.116965 0.958691
56 1 0.481285 0.151486 0.84166
44 3 0.157648 0.0264462 0.919414
42 2 0.0561457 0.101211 0.966128
49 3 0.718708 0.502366 0.198447
48 3 0.485732 0.342846 0.132809
47 2 0.685359 0.401776 0.148823
50 3 0.860744 0.355046 0.113116
41 1 0.126352 0.399842 0.0307664
9 3 0.319828 0.648623 0.0476881
18 3 0.569667 0.449287 0.425602
25 3 0.194751 0.548407 0.281631
26 1 0.72748 0.606546 0.311746
20 3 0.550426 0.337212 0.325671
17 2 0.470628 0.35503 0.383337
36 1 0.417789 0.663909 0.487848
40 3 0.279287 0.477054 0.57536
16 1 0.743328 0.483898 0.741216
38 3 0.402541 0.55192 0.676626
37 2 0.235465 0.536957 0.63603
39 3 0.00307081 0.535156 0.653401
53 3 0.591016 0.362711 0.976512
55 3 0.900262 0.453709 0.92303
52 2 0.697482 0.387696 0.918668
54 3 0.581534 0.378004 0.858389
8 3 0.984536 0.745637 0.0571283
7 2 0.203805 0.750444 0.0685544
31 1 0.703259 0.812945 0.157758
10 3 0.316285 0.833141 0.109544
22 2 0.237118 0.681096 0.280509
2 2 0.892186 0.828557 0.423679
3 3 0.984846 0.940149 0.405758
24 3 0.429224 0.724789 0.30626
4 3 0.669083 0.826314 0.437058
5 3 1.03366 0.726871 0.437401
23 3 1.0363 0.753213 0.270503
59 3 0.417904 0.846248 0.594601
60 3 0.236816 1.00148 0.532899
57 2 0.252941 0.939238 0.589447
58 3 0.096241 0.969271 0.639956
11 1 0.712979 0.927168 0.684381
12 2 0.553624 0.801556 0.853727
6 1 0.975209 0.799111 0.918702
13 3 0.632926 0.889073 0.808635
15 3 0.336683 0.826773 0.872043
14 3 0.669364 0.687698 0.865925
ITEM: TIMESTEP
513000
ITEM: NUMBER OF ATOMS
60
ITEM: BOX BOUNDS pp pp pp
-2.3070111202802623e-01 5.3008011120273135e+00
-3.9958737608581885e-01 9.1812873760861748e+00
-7.6543936145922054e-01 1.7587439361459381e+01
ITEM: ATOMS id type xs ys zs
35 3 0.81974 0.126736 0.147019
21 1 0.707643 0.077672 0.0387499
32 2 0.784156 0.0770623 0.210152
48 3 0.672485 0.303148 0.066262
43 3 0.146989 0.00535095 0.0524298
33 3 0.923841 0.11907 0.260505
18 3 0.170894 0.284469 0.385612
20 3 0.775621 0.330991 0.418063
60 3 0.435265 0.0343058 0.489683
27 2 0.507996 0.202553 0.683914
29 3 0.319593 0.201837 0.649594
30 3 0.70466 0.180071 0.652567
51 1 0.974723 0.313859 0.606381
45 3 0.989473 0.0179625 0.940328
56 1 0.846793 0.109432 0.832955
44 3 0.329821 0.106196 0.956116
42 2 0.146933 0.0403932 0.985706
28 3 0.497451 0.229679 0.752525
49 3 0.810955 0.428769 0.156512
47 2 0.848707 0.375665 0.0978507
50 3 0.0563365 0.387629 0.0636704
41 1 0.38748 0.438448 0.0133577
8 3 0.470078 0.664082 0.0120825
1 1 0.0881293 0.340144 0.25135
23 3 0.885994 0.61157 0.325715
26 1 0.561237 0.526529 0.389566
19 3 0.0716712 0.383601 0.493045
17 2 0.00524794 0.33864 0.43223
25 3 0.239942 0.581192 0.287363
2 2 0.939903 0.652353 0.491184
22 2 0.0631673 0.662952 0.300744
40 3 0.0999779 0.523643 0.694422
37 2 0.872825 0.575615 0.699298
38 3 0.705066 0.511065 0.725745
5 3 0.142793 0.626346 0.514194
4 3 0.751543 0.614553 0.52087
54 3 0.631201 0.543886 0.878861
55 3 0.0125997 0.520083 0.858733
52 2 0.828908 0.467302 0.881993
16 1 0.378945 0.494154 0.796689
53 3 0.81286 0.342173 0.900708
10 3 0.581762 0.858012 0.0692983
7 2 0.596803 0.775812 0.0163745
31 1 0.277402 0.887933 0.167241
34 3 0.625572 0.981537 0.22387
24 3 0.0983491 0.790541 0.290728
46 1 0.795173 0.952593 0.383507
3 3 0.907262 0.745609 0.440926
59 3 0.546713 0.926534 0.591006
11 1 0.857069 0.924337 0.651415
39 3 0.819703 0.680752 0.671762
58 3 0.16616 0.9406 0.563081
57 2 0.390573 0.972603 0.549419
36 1 0.337469 0.702766 0.60738