ITEM: TIMESTEP
0
ITEM: NUMBER OF ATOMS
60
ITEM: BOX BOUNDS pp pp pp
-1.3628050872860342e-01 5.2063805087286408e+00
-2.3604555008805050e-01 9.0177455500884633e+00
-4.5216282081802994e-01 1.7274162820815690e+01
ITEM: ATOMS id type xs ys zs
1 1 0.866825 0.50164 0.112981
2 2 0.0181395 0.368987 0.768339
3 3 0.0860924 0.389096 0.703326
4 3 0.156775 0.422579 0.817004
5 3 0.833315 0.288335 0.778884
6 1 0.914186 0.106436 0.449817
7 2 0.83365 0.352827 0.308147
8 3 0.0764572 0.375119 0.317174
9 3 0.710146 0.278332 0.351703
10 3 0.714732 0.398426 0.248793
11 1 0.393429 0.512563 0.365039
12 2 0.937713 0.729322 0.981365
13 3 0.863338 0.72467 0.911369
14 3 0.161815 0.75126 0.988025
15 3 0.790676 0.701084 0.0380542
16 1 0.457488 0.194652 0.700717
17 2 0.987115 0.661669 0.444409
18 3 0.873593 0.704029 0.505114
19 3 0.234523 0.67516 0.446329
20 3 0.873663 0.623722 0.389749
21 1 0.534552 0.54434 0.873365
22 2 0.280859 0.654043 0.192811
23 3 0.464168 0.607121 0.228004
24 3 0.320372 0.736398 0.13553
25 3 0.054568 0.646564 0.223123
26 1 0.935261 0.237191 0.915248
27 2 0.390951 0.398062 0.0226887
28 3 0.566555 0.387323 0.980901
29 3 0.43409 0.415752 0.09164
30 3 0.172548 0.411494 0.0008489
31 1 0.50572 0.20004 0.218608
32 2 0.30401 0.89372 0.341355
33 3 0.129799 0.926246 0.382843
34 3 0.271542 0.91351 0.26898
35 3 0.491043 0.834826 0.362948
36 1 0.766395 0.75116 0.271866
37 2 0.348651 0.696364 0.710977
38 3 0.140273 0.678982 0.741972
39 3 0.375245 0.701154 0.641203
40 3 0.531189 0.703558 0.755916
41 1 0.0532361 0.51199 0.608377
42 2 0.0319873 0.0303913 0.613771
43 3 0.257294 0.0143242 0.592442
44 3 0.00181169 0.0362771 0.685788
45 3 0.859616 0.0338965 0.57489
46 1 0.517524 0.878023 0.0516865
47 2 0.443385 0.103568 0.885065
48 3 0.427093 0.151023 0.816294
49 3 0.241156 0.0553078 0.914057
50 3 0.65879 0.0765867 0.904946
51 1 0.426635 0.816864 0.541473
52 2 0.0277836 0.106104 0.121195
53 3 0.935023 0.0933264 0.0558403
54 3 0.914097 0.134419 0.183651
55 3 0.249107 0.0654224 0.12559
56 1 0.866388 0.876119 0.798795
57 2 0.43308 0.330645 0.534459
58 3 0.501234 0.460305 0.511371
59 3 0.292239 0.254794 0.495291
60 3 0.52792 0.292566 0.592691
ITEM: TIMESTEP
1000
ITEM: NUMBER OF ATOMS
60
ITEM: BOX BOUNDS pp pp pp
-1.3628050872860342e-01 5.2063805087286408e+00
-2.3604555008805050e-01 9.0177455500884633e+00
-4.5216282081802994e-01 1.7274162820815690e+01
ITEM: ATOMS id type xs ys zs
1 1 0.935542 0.523904 0.129884
2 2 0.949065 0.393302 0.785455
3 3 0.165782 0.436658 0.770422
4 3 0.885527 0.331124 0.851106
5 3 0.789093 0.420908 0.737347
6 1 0.030282 0.179204 0.429014
7 2 0.870792 0.311621 0.268103
8 3 0.941672 0.308559 0.205188
9 3 0.0296958 0.304521 0.32001
10 3 0.645248 0.303184 0.279609
11 1 0.448082 0.439884 0.380532
12 2 0.91284 0.690405 0.956685
13 3 0.702387 0.657336 0.935089
14 3 0.0793541 0.690938 0.904926
15 3 -0.000815889 0.67328 0.0193573
16 1 0.464912 0.214287 0.714945
17 2 0.0169291 0.677007 0.466516
18 3 0.859672 0.652388 0.517269
19 3 0.231534 0.697062 0.478456
20 3 0.939633 0.65506 0.395247
21 1 0.423337 0.524666 0.8607
22 2 0.406982 0.710987 0.212657
23 3 0.631263 0.678775 0.219488
24 3 0.341034 0.792801 0.160916
25 3 0.245116 0.679058 0.26123
26 1 0.919514 0.200897 0.956176
27 2 0.354329 0.358316 0.0177706
28 3 0.359153 0.362876 0.94495
29 3 0.541533 0.397452 0.0532357
30 3 0.17476 0.315643 0.0570437
31 1 0.343125 0.164365 0.201973
32 2 0.479824 0.0154553 0.345617
33 3 0.387176 0.960036 0.29101
34 3 0.723567 0.999197 0.359818
35 3 0.367854 0.101802 0.386698
36 1 0.936614 0.84567 0.262886
37 2 0.338269 0.74006 0.705182
38 3 0.111202 0.703786 0.697289
39 3 0.485039 0.785379 0.65514
40 3 0.407339 0.767135 0.770485
41 1 -0.00343684 0.460522 0.62205
42 2 0.933266 0.0880734 0.620694
43 3 0.746443 0.0533087 0.655983
44 3 0.0704427 0.181406 0.64971
45 3 0.975034 0.0464675 0.549776
46 1 0.357967 0.808501 0.0368818
47 2 0.378662 0.0059879 0.882595
48 3 0.495108 0.929202 0.925746
49 3 0.153059 0.0353663 0.895618
50 3 0.484766 0.0599419 0.820481
51 1 0.627618 0.852502 0.542774
52 2 0.812719 0.026283 0.118469
53 3 0.598677 0.0793965 0.0963523
54 3 0.874894 0.0439593 0.187502
55 3 0.93516 0.934912 0.0805027
56 1 0.927105 0.832103 0.798729
57 2 0.540327 0.333201 0.530695
58 3 0.320495 0.353984 0.507793
59 3 0.558089 0.329445 0.602544
60 3 0.725222 0.340194 0.490272
ITEM: TIMESTEP
2000
ITEM: NUMBER OF ATOMS
60
ITEM: BOX BOUNDS pp pp pp
-1.3628050872860342e-01 5.2063805087286408e+00
-2.3604555008805050e-01 9.0177455500884633e+00
-4.5216282081802994e-01 1.7274162820815690e+01
ITEM: ATOMS id type xs ys zs
1 1 -0.00220276 0.489061 0.119588
2 2 0.845167 0.310083 0.765042
3 3 0.979059 0.198044 0.749595
4 3 0.79211 0.329604 0.831295
5 3 0.709145 0.373403 0.717216
6 1 0.884411 0.261438 0.45116
7 2 0.0407164 0.379913 0.292861
8 3 0.262003 0.360272 0.31434
9 3 0.871352 0.371773 0.345403
10 3 0.987978 0.388117 0.222713
11 1 0.426506 0.521216 0.400988
12 2 0.023241 0.703126 0.931772
13 3 0.0672847 0.793852 0.878772
14 3 0.185511 0.663416 0.981679
15 3 0.803269 0.646612 0.929969
16 1 0.395609 0.120916 0.691176
17 2 0.845494 0.720802 0.444341
18 3 0.776256 0.589416 0.438378
19 3 0.0475366 0.741123 0.485924
20 3 0.73065 0.812946 0.410831
21 1 0.484243 0.490688 0.86592
22 2 0.381898 0.66064 0.235493
23 3 0.316808 0.657114 0.166117
24 3 0.207119 0.67257 0.284644
25 3 0.607715 0.675659 0.261269
26 1 0.980538 0.198125 0.953587
27 2 0.447309 0.382025 0.039134
28 3 0.295438 0.327443 0.0867799
29 3 0.385385 0.398659 0.970408
30 3 0.678835 0.379523 0.0556343
31 1 0.564221 0.195822 0.232379
32 2 0.341032 0.0825784 0.36469
33 3 0.288539 0.128222 0.431457
34 3 0.151549 0.034181 0.333494
35 3 0.547055 0.092265 0.339901
36 1 0.906753 0.860446 0.287885
37 2 0.434238 0.668359 0.702964
38 3 0.615174 0.689915 0.745455
39 3 0.21721 0.655727 0.73592
40 3 0.426393 0.680006 0.627583
41 1 0.925502 0.512686 0.627943
42 2 0.874307 0.00905401 0.59145
43 3 0.968619 0.939603 0.648276
44 3 -0.0147249 0.0548106 0.533613
45 3 0.632276 0.00923245 0.587876
46 1 0.512243 0.839361 0.011695
47 2 0.488945 0.0394306 0.886506
48 3 0.448077 0.0194007 0.818738
49 3 0.717089 0.0765662 0.90968
50 3 0.311135 0.0295699 0.931639
51 1 0.409993 0.90554 0.495659
52 2 0.961017 0.0138681 0.125563
53 3 0.835543 0.0229611 0.18315
54 3 0.1714 0.949241 0.125155
55 3 0.895668 0.0774633 0.0640758
56 1 0.914658 0.841908 0.762752
57 2 0.340615 0.330966 0.543739
58 3 0.227172 0.363993 0.482244
59 3 0.230634 0.31864 0.604962
60 3 0.594469 0.310824 0.539397
ITEM: TIMESTEP
3000
ITEM: NUMBER OF ATOMS
60
ITEM: BOX BOUNDS pp pp pp
-1.3628050872860342e-01 5.2063805087286408e+00
-2.3604555008805050e-01 9.0177455500884633e+00
-4.5216282081802994e-01 1.7274162820815690e+01
ITEM: ATOMS id type xs ys zs
1 1 0.924154 0.551438 0.134008
2 2 0.951819 0.33481 0.781188
3 3 0.819925 0.324258 0.842575
4 3 0.819023 0.343055 0.720136
5 3 0.184797 0.373733 0.77977
6 1 0.923102 0.21865 0.464854
7 2 0.814844 0.392541 0.302459
8 3 0.0508832 0.435662 0.302093
9 3 0.684602 0.388509 0.364865
10 3 0.687726 0.381625 0.243285
11 1 0.394818 0.529179 0.387073
12 2 0.977126 0.601123 0.918171
13 3 0.0602956 0.59552 0.855048
14 3 0.14889 0.604471 0.967822
15 3 0.759943 0.644584 0.934013
16 1 0.431033 0.205624 0.714861
17 2 0.951908 0.75019 0.449183
18 3 0.106123 0.652775 0.446709
19 3 0.826982 0.780427 0.388092
20 3 0.899787 0.831431 0.510017
21 1 0.473521 0.474568 0.853344
22 2 0.455612 0.681371 0.207274
23 3 0.349492 0.684953 0.14329
24 3 0.316594 0.690737 0.267512
25 3 0.695334 0.671882 0.214528
26 1 0.859945 0.177053 0.957264
27 2 0.33082 0.301376 0.0635538
28 3 0.222042 0.271266 -0.00079042
29 3 0.563566 0.328074 0.0711515
30 3 0.177831 0.338858 0.112144
31 1 0.32154 0.184248 0.191325
32 2 0.344082 0.0833314 0.346852
33 3 0.447794 0.127286 0.415049
34 3 0.104069 0.0864532 0.34289
35 3 0.472672 0.0392601 0.29329
36 1 0.923311 0.839845 0.270429
37 2 0.512753 0.706444 0.690757
38 3 0.738303 0.688339 0.699059
39 3 0.39105 0.717534 0.751651
40 3 0.415987 0.68168 0.626425
41 1 0.941225 0.508755 0.617735
42 2 0.976001 0.05693 0.631739
43 3 0.954148 0.0149304 0.698432
44 3 0.19416 0.0582619 0.605732
45 3 0.787554 0.0797959 0.58897
46 1 0.444244 0.759775 0.0164875
47 2 0.437747 0.0186699 0.885728
48 3 0.650661 0.975579 0.897968
49 3 0.251338 0.998411 0.925918
50 3 0.387861 0.0802607 0.825229
51 1 0.440392 0.965345 0.513016
52 2 0.895799 0.959945 0.103225
53 3 0.855304 0.825797 0.116353
54 3 0.0704009 0.0217282 0.137312
55 3 0.773787 0.029448 0.0587932
56 1 0.00640062 0.834312 0.782999
57 2 0.48869 0.361728 0.542134
58 3 0.434633 0.386507 0.612477
59 3 0.317925 0.338094 0.49763
60 3 0.704197 0.370192 0.515453
ITEM: TIMESTEP
4000
ITEM: NUMBER OF ATOMS
60
ITEM: BOX BOUNDS pp pp pp
-1.3628050872860342e-01 5.2063805087286408e+00
-2.3604555008805050e-01 9.0177455500884633e+00
-4.5216282081802994e-01 1.7274162820815690e+01
ITEM: ATOMS id type xs ys zs
1 1 0.937626 0.549614 0.127875
2 2 0.784023 0.307787 0.779889
3 3 0.849882 0.327954 0.846369
4 3 0.54871 0.302309 0.767726
5 3 0.943595 0.259923 0.729174
6 1 0.96723 0.223003 0.469835
7 2 0.878755 0.360024 0.279311
8 3 0.0857532 0.34582 0.251603
9 3 0.800568 0.267475 0.323958
10 3 0.740646 0.449845 0.248282
11 1 0.419876 0.580264 0.321249
12 2 0.929827 0.701311 0.960573
13 3 0.789926 0.710174 0.898933
14 3 0.070543 0.81263 0.965868
15 3 0.902849 0.607261 0.0118556
16 1 0.358804 0.139273 0.677766
17 2 0.888352 0.682144 0.43686
18 3 0.0960806 0.66794 0.404488
19 3 0.713912 0.741846 0.404089
20 3 0.866533 0.638707 0.503634
21 1 0.526611 0.505671 0.905415
22 2 0.382666 0.718058 0.194406
23 3 0.479958 0.780908 0.249952
24 3 0.464545 0.730483 0.128519
25 3 0.196707 0.63351 0.206918
26 1 0.0939408 0.136302 0.934842
27 2 0.432974 0.27739 0.0481424
28 3 0.311165 0.357719 0.0933732
29 3 0.382085 0.312215 0.982038
30 3 0.537713 0.15602 0.0602567
31 1 0.452359 0.229142 0.200398
32 2 0.4423 0.0642479 0.385427
33 3 0.665729 0.0779286 0.409457
34 3 0.299198 0.0390939 0.433611
35 3 0.383486 0.0973897 0.318696
36 1 0.881734 -0.00208335 0.297816
37 2 0.408492 0.621748 0.720881
38 3 0.624412 0.621458 0.687622
39 3 0.429033 0.610936 0.796272
40 3 0.192657 0.668811 0.698867
41 1 0.886854 0.485332 0.628354
42 2 0.872284 -0.00473595 0.609448
43 3 0.645967 0.0178902 0.595837
44 3 0.950995 0.898875 0.654414
45 3 0.0129337 0.0980378 0.589595
46 1 0.504422 0.898833 0.0414236
47 2 0.561278 0.990977 0.852974
48 3 0.473243 0.958088 0.785314
49 3 0.787439 1.03137 0.849883
50 3 0.446154 0.958198 0.913488
51 1 0.430909 0.811264 0.540578
52 2 0.967999 0.0590784 0.135223
53 3 0.0395034 0.0861069 0.0688454
54 3 0.0970473 0.0989201 0.187799
55 3 0.785519 0.971001 0.151415
56 1 0.997099 0.831381 0.782062
57 2 0.441666 0.450129 0.509454
58 3 0.404143 0.414516 0.442098
59 3 0.327724 0.564479 0.533496
60 3 0.570563 0.363293 0.550812
ITEM: TIMESTEP
5000
ITEM: NUMBER OF ATOMS
60
ITEM: BOX BOUNDS pp pp pp
-1.3628050872860342e-01 5.2063805087286408e+00
-2.3604555008805050e-01 9.0177455500884633e+00
-4.5216282081802994e-01 1.7274162820815690e+01
ITEM: ATOMS id type xs ys zs
1 1 0.939162 0.564345 0.110202
2 2 0.826382 0.322994 0.774425
3 3 0.589593 0.361362 0.779869
4 3 -0.0126279 0.365714 0.72242
5 3 0.889466 0.234648 0.825251
6 1 0.890262 0.238511 0.40508
7 2 0.937758 0.432365 0.267261
8 3 0.822083 0.432321 0.203624
9 3 0.174644 0.416598 0.273199
10 3 0.795979 0.439419 0.324047
11 1 0.398739 0.542914 0.389923
12 2 0.920309 0.686303 0.960124
13 3 0.731516 0.6906 0.00396448
14 3 0.91661 0.604316 0.908195
15 3 0.100622 0.744379 0.984846
16 1 0.412693 0.205518 0.695679
17 2 0.861652 0.716217 0.487356
18 3 1.00567 0.706179 0.432073
19 3 0.952917 0.7449 0.549245
20 3 0.634429 0.682633 0.488018
21 1 0.411047 0.495405 0.90114
22 2 0.479501 0.702874 0.2291
23 3 0.703115 0.747036 0.217017
24 3 0.366062 0.644171 0.173534
25 3 0.412468 0.711833 0.296099
26 1 0.0442595 0.0843609 0.915257
27 2 0.513216 0.254573 0.0118298
28 3 0.575446 0.357037 0.0568431
29 3 0.307421 0.257676 -0.0239674
30 3 0.674844 0.152539 1.00206
31 1 0.389892 0.265914 0.20185
32 2 0.442254 0.0366251 0.374898
33 3 0.596642 0.0712792 0.329498
34 3 0.484739 0.966153 0.435863
35 3 0.213493 0.0519013 0.353382
36 1 0.926019 0.89343 0.311697
37 2 0.470508 0.653454 0.718785
38 3 0.695622 0.63865 0.694482
39 3 0.381281 0.634388 0.780176
40 3 0.352706 0.731009 0.674805
41 1 0.921087 0.501689 0.61271
42 2 0.910934 0.0210467 0.586071
43 3 0.688804 -0.00300806 0.617215
44 3 0.101417 0.0234458 0.632065
45 3 0.967008 0.0367226 0.522156
46 1 0.433608 0.903642 0.0706651
47 2 0.496912 0.96965 0.84965
48 3 0.388868 0.0314546 0.797531
49 3 0.717724 0.91898 0.833543
50 3 0.385497 0.953999 0.912684
51 1 0.392612 0.859681 0.561173
52 2 0.845792 0.101442 0.137908
53 3 0.955901 1.00911 0.0971712
54 3 0.982005 0.186307 0.180358
55 3 0.620842 0.0957042 0.153764
56 1 0.00710167 0.802701 0.764338
57 2 0.367323 0.356909 0.502043
58 3 0.176202 0.424855 0.479916
59 3 0.438317 0.356078 0.570288
60 3 0.475988 0.278656 0.457444
ITEM: TIMESTEP
6000
ITEM: NUMBER OF ATOMS
60
ITEM: BOX BOUNDS pp pp pp
-1.3628050872860342e-01 5.2063805087286408e+00
-2.3604555008805050e-01 9.0177455500884633e+00
-4.5216282081802994e-01 1.7274162820815690e+01
ITEM: ATOMS id type xs ys zs
1 1 0.911257 0.528468 0.109128
2 2 0.893701 0.32577 0.800705
3 3 0.858316 0.35983 0.734395
4 3 0.117342 0.306453 0.818959
5 3 0.711632 0.328595 0.846743
6 1 0.71766 0.134565 0.439191
7 2 0.899115 0.388553 0.30281
8 3 0.807583 0.351797 0.240111
9 3 0.111121 0.456807 0.295405
10 3 0.801615 0.354276 0.367463
11 1 0.444327 0.474508 0.406058
12 2 -0.0118969 0.716802 0.931657
13 3 -0.0087629 0.692044 0.856398
14 3 0.200784 0.723912 0.965544
15 3 0.790503 0.744773 0.967755
16 1 0.330794 0.185255 0.744507
17 2 0.893035 0.709283 0.467314
18 3 0.113879 0.732912 0.490385
19 3 0.761891 0.625481 0.505719
20 3 0.83158 0.760802 0.40449
21 1 0.370398 0.549153 0.859866
22 2 0.441635 0.686968 0.181634
23 3 0.613996 0.594886 0.203988
24 3 0.334198 0.665955 0.116972
25 3 0.37838 0.788222 0.227249
26 1 0.913363 0.222744 0.94566
27 2 0.428331 0.390091 0.0260074
28 3 0.66978 0.386592 0.0185307
29 3 0.287716 0.380405 0.0883582
30 3 0.309549 0.417894 0.967363
31 1 0.440138 0.217827 0.205487
32 2 0.258172 0.0962161 0.360773
33 3 0.32077 0.225344 0.3451
34 3 0.439401 1.01104 0.377317
35 3 1.03349 0.0642595 0.362574
36 1 0.0577128 0.800144 0.29806
37 2 0.523711 0.686765 0.675545
38 3 0.393795 0.755935 0.630731
39 3 0.753939 0.675036 0.667825
40 3 0.442848 0.657348 0.746951
41 1 0.845505 0.468485 0.60086
42 2 0.862583 0.0121524 0.626388
43 3 0.654348 0.053859 0.645304
44 3 0.0417758 0.0219092 0.670237
45 3 0.917219 -0.032607 0.554441
46 1 0.505686 0.894284 0.0460974
47 2 0.658017 0.959368 0.864832
48 3 0.568283 0.845368 0.835111
49 3 0.839465 0.01602 0.835899
50 3 0.525757 1.00894 0.920571
51 1 0.398512 0.928759 0.542436
52 2 0.980211 0.982625 0.130713
53 3 0.850195 0.0145086 0.072865
54 3 0.17968 0.0473181 0.143504
55 3 0.902287 0.887423 0.177325
56 1 0.0269491 0.834167 0.749811
57 2 0.315314 0.310457 0.538101
58 3 0.0768194 0.294969 0.537642
59 3 0.406601 0.426514 0.563191
60 3 0.458181 0.217026 0.519403
ITEM: TIMESTEP
7000
ITEM: NUMBER OF ATOMS
60
ITEM: BOX BOUNDS pp pp pp
-1.3628050872860342e-01 5.2063805087286408e+00
-2.3604555008805050e-01 9.0177455500884633e+00
-4.5216282081802994e-01 1.7274162820815690e+01
ITEM: ATOMS id type xs ys zs
1 1 0.803842 0.512925 0.108114
2 2 0.81463 0.357599 0.761306
3 3 0.931046 0.355811 0.697776
4 3 0.911532 0.377458 0.824721
5 3 0.589289 0.321614 0.761113
6 1 0.949112 0.199566 0.451989
7 2 0.845065 0.41919 0.296258
8 3 0.722127 0.43963 0.237734
9 3 0.0622116 0.454669 0.300776
10 3 0.731871 0.363511 0.356265
11 1 0.440687 0.54113 0.387467
12 2 0.961508 0.66711 0.951061
13 3 0.0857751 0.7082 0.896175
14 3 0.0675783 0.666524 1.01479
15 3 0.725499 0.656288 0.958958
16 1 0.397913 0.171383 0.679397
17 2 -0.0103811 0.708018 0.458102
18 3 0.214717 0.73672 0.454728
19 3 0.900439 0.672611 0.521452
20 3 0.871668 0.688053 0.397128
21 1 0.31226 0.444729 0.851448
22 2 0.47337 0.736609 0.203992
23 3 0.567011 0.697862 0.143033
24 3 0.230009 0.758517 0.210904
25 3 0.582722 0.737274 0.266518
26 1 0.0660435 0.0938987 0.956614
27 2 0.339468 0.339683 0.0395942
28 3 0.552351 0.292676 0.046072
29 3 0.248726 0.341189 0.103625
30 3 0.262917 0.410637 0.98143
31 1 0.490679 0.199533 0.202651
32 2 0.440409 0.0706711 0.376275
33 3 0.286478 0.119998 0.326909
34 3 0.670395 0.0577366 0.355629
35 3 0.35899 0.0259765 0.440743
36 1 0.926155 0.855336 0.278575
37 2 0.447889 0.658056 0.697875
38 3 0.219772 0.661535 0.699409
39 3 0.579276 0.697732 0.63287
40 3 0.579611 0.621694 0.75375
41 1 0.910519 0.516431 0.602324
42 2 0.948431 0.0120077 0.623694
43 3 0.127879 -0.0283927 0.672808
44 3 0.00214855 1.0381 0.556492
45 3 0.7144 0.0248319 0.643894
46 1 0.484638 0.806187 0.0325284
47 2 0.478796 0.0252313 0.858253
48 3 0.334036 0.128113 0.841553
49 3 0.587018 0.948475 0.804452
50 3 0.512191 0.995962 0.924502
51 1 0.458157 0.881921 0.554153
52 2 0.988705 0.000629387 0.136622
53 3 -0.00254181 0.964119 0.0675494
54 3 0.17952 0.0614945 0.16237
55 3 0.78593 0.976473 0.172918
56 1 0.920608 0.81235 0.767376
57 2 0.358181 0.367585 0.528819
58 3 0.278798 0.418897 0.58639
59 3 0.576375 0.316572 0.519414
60 3 0.21214 0.359725 0.471847
ITEM: TIMESTEP
8000
ITEM: NUMBER OF ATOMS
60
ITEM: BOX BOUNDS pp pp pp
-1.3628050872860342e-01 5.2063805087286408e+00
-2.3604555008805050e-01 9.0177455500884633e+00
-4.5216282081802994e-01 1.7274162820815690e+01
ITEM: ATOMS id type xs ys zs
1 1 0.0328388 0.475281 0.124675
2 2 0.00994932 0.411544 0.787168
3 3 0.161899 0.420836 0.733606
4 3 0.0673375 0.342027 0.847836
5 3 0.787242 0.447517 0.776059
6 1 0.738115 0.151515 0.452283
7 2 -0.0562997 0.263107 0.243439
8 3 0.837703 0.273134 0.17979
9 3 0.176883 0.258698 0.252226
10 3 0.830515 0.303644 0.30324
11 1 0.133927 0.484824 0.357642
12 2 0.144481 0.685883 0.967044
13 3 0.937707 0.682735 0.925803
14 3 0.368938 0.709456 0.94302
15 3 0.117729 0.691561 0.0341716
16 1 0.437164 0.234969 0.731577
17 2 0.876791 0.774953 0.461906
18 3 0.869998 0.756933 0.532807
19 3 0.786145 0.882721 0.428496
20 3 0.946208 0.675481 0.418867
21 1 0.563347 0.55934 0.875593
22 2 0.570037 0.5878 0.20631
23 3 0.78737 0.619566 0.189658
24 3 0.416257 0.5621 0.156179
25 3 0.500112 0.613401 0.274586
26 1 1.01165 0.175252 0.957108
27 2 0.395501 0.357355 0.0393562
28 3 0.336781 0.30318 0.111028
29 3 0.231602 0.372601 0.990314
30 3 0.61706 0.409824 0.0191161
31 1 0.469043 0.158856 0.184237
32 2 0.253359 0.0527532 0.363517
33 3 0.0264103 0.0525867 0.353552
34 3 0.392814 -0.00048326 0.318747
35 3 0.324091 0.092803 0.429969
36 1 0.82022 0.830894 0.29248
37 2 0.344493 0.695433 0.704117
38 3 0.439309 0.688127 0.642075
39 3 0.435871 0.741661 0.758739
40 3 0.0979205 0.667725 0.703754
41 1 0.859121 0.540041 0.613502
42 2 0.875827 0.0605145 0.620265
43 3 0.964652 0.0634679 0.554185
44 3 0.642173 0.0607835 0.62231
45 3 0.997251 0.0305853 0.676705
46 1 0.574004 0.844349 0.0458347
47 2 0.425343 0.0208383 0.869334
48 3 0.250848 0.0197911 0.822269
49 3 0.645375 0.0114705 0.848595
50 3 0.387653 0.0254248 0.94242
51 1 0.327192 0.940176 0.559026
52 2 1.0037 0.959577 0.108073
53 3 0.955655 -0.00758299 0.0427903
54 3 0.232283 0.952528 0.128418
55 3 0.836913 0.951786 0.160603
56 1 0.87809 0.845998 0.766844
57 2 0.397712 0.396108 0.528537
58 3 0.166798 0.425818 0.515117
59 3 0.446475 0.330235 0.589997
60 3 0.558304 0.424488 0.48166
ITEM: TIMESTEP
9000
ITEM: NUMBER OF ATOMS
60
ITEM: BOX BOUNDS pp pp pp
-1.3628050872860342e-01 5.2063805087286408e+00
-2.3604555008805050e-01 9.0177455500884633e+00
-4.5216282081802994e-01 1.7274162820815690e+01
ITEM: ATOMS id type xs ys zs
1 1 0.922066 0.517016 0.103074
2 2 0.909324 0.372965 0.800647
3 3 0.7669 0.448809 0.763193
4 3 0.129713 0.331621 0.781484
5 3 0.859201 0.353956 0.868978
6 1 0.921588 0.196761 0.459987
7 2 0.986721 0.376138 0.279017
8 3 0.863756 0.345161 0.222219
9 3 0.22393 0.339602 0.280842
10 3 0.878696 0.426361 0.337394
11 1 0.536612 0.543464 0.366247
12 2 0.933543 0.706206 0.952067
13 3 0.773529 0.729642 0.905103
14 3 0.158798 0.672021 0.937323
15 3 0.86055 0.726146 0.0213211
16 1 0.374609 0.208698 0.694979
17 2 0.997678 0.695131 0.458329
18 3 0.208338 0.642628 0.435664
19 3 0.968284 0.688706 0.530483
20 3 0.822033 0.751086 0.423233
21 1 0.431253 0.487763 0.861025
22 2 0.402096 0.658513 0.174403
23 3 0.168378 0.646755 0.184134
24 3 0.51865 0.654306 0.113264
25 3 0.536354 0.69647 0.23412
26 1 0.890287 0.170167 0.966005
27 2 0.40897 0.3355 0.0408915
28 3 0.304819 0.407101 0.0879762
29 3 0.336643 0.319854 0.978041
30 3 0.589417 0.277097 0.0569744
31 1 0.523598 0.192586 0.1835
32 2 0.407626 0.0280996 0.387581
33 3 0.218683 0.0312896 0.427878
34 3 0.402392 0.953968 0.331742
35 3 0.613451 0.0818953 0.412654
36 1 1.00782 0.829902 0.281419
37 2 0.499558 0.669119 0.671035
38 3 0.629441 0.737108 0.61887
39 3 0.475147 0.735698 0.732782
40 3 0.413851 0.553988 0.665901
41 1 0.916124 0.52911 0.609922
42 2 0.869818 0.0289199 0.619573
43 3 0.0978692 -0.00333809 0.620947
44 3 0.762157 0.0432976 0.552577
45 3 0.735702 0.0196458 0.676822
46 1 0.456299 0.840622 0.0168785
47 2 0.324003 0.0653112 0.881811
48 3 0.461378 0.103929 0.826392
49 3 0.403826 0.0198879 0.944613
50 3 0.0930987 1.05257 0.866487
51 1 0.343588 0.903736 0.528083
52 2 0.915691 0.978104 0.122389
53 3 0.0318704 0.95069 0.0587746
54 3 0.029635 0.996737 0.183512
55 3 0.681369 -0.00607975 0.12318
56 1 0.764725 0.892888 0.796866
57 2 0.439441 0.349857 0.539447
58 3 0.378347 0.354282 0.469823
59 3 0.273107 0.329034 0.585906
60 3 0.686764 0.344119 0.556847
ITEM: TIMESTEP
10000
ITEM: NUMBER OF ATOMS
60
ITEM: BOX BOUNDS pp pp pp
-1.3628050872860342e-01 5.2063805087286408e+00
-2.3604555008805050e-01 9.0177455500884633e+00
-4.5216282081802994e-01 1.7274162820815690e+01
ITEM: ATOMS id type xs ys zs
1 1 0.894078 0.494364 0.150093
2 2 0.821408 0.342633 0.769546
3 3 0.799991 0.202778 0.770418
4 3 0.804084 0.396988 0.70912
5 3 0.873871 0.414526 0.825715
6 1 0.905863 0.164239 0.462807
7 2 0.984914 0.346198 0.303195
8 3 0.884153 0.355458 0.241182
9 3 0.20033 0.386105 0.308338
10 3 0.853957 0.315363 0.360523
11 1 0.455165 0.491761 0.382565
12 2 0.938071 0.71697 0.966518
13 3 0.704481 0.709301 0.980974
14 3 0.998803 0.765802 0.899443
15 3 0.116748 0.686637 0.00947881
16 1 0.320402 0.16114 0.729833
17 2 0.0442122 0.673199 0.428622
18 3 1.03404 0.710778 0.358802
19 3 0.240513 0.68015 0.459852
20 3 0.852977 0.624104 0.458935
21 1 0.462733 0.615635 0.88587
22 2 0.421604 0.716843 0.20118
23 3 0.530842 0.598172 0.198464
24 3 0.201451 0.734166 0.169375
25 3 0.548934 0.816971 0.224092
26 1 -0.0215555 0.203567 0.947266
27 2 0.502565 0.39615 0.0391119
28 3 0.355808 0.383794 0.987755
29 3 0.72812 0.388022 0.0172223
30 3 0.452279 0.391085 0.108993
31 1 0.401828 0.231152 0.214654
32 2 0.40173 0.0305449 0.363613
33 3 0.438735 0.0588698 0.431306
34 3 0.161084 0.992959 0.340853
35 3 0.584799 0.0173641 0.318452
36 1 0.880133 0.850519 0.269173
37 2 0.361761 0.68559 0.680872
38 3 0.468631 0.692563 0.745638
39 3 0.124726 0.654197 0.672067
40 3 0.482434 0.715052 0.619194
41 1 0.926296 0.490088 0.602979
42 2 0.864775 0.989648 0.615598
43 3 1.08628 0.0150061 0.649121
44 3 0.85415 0.946995 0.548371
45 3 0.654818 0.00791391 0.649367
46 1 0.455132 0.896249 0.0541848
47 2 0.379488 0.966295 0.872641
48 3 0.252913 0.00263057 0.816011
49 3 0.583035 0.901171 0.864658
50 3 0.339497 0.0202497 0.938342
51 1 0.462872 0.846729 0.516947
52 2 0.960271 0.0819186 0.103847
53 3 0.178412 0.0967326 0.128927
54 3 0.780109 0.0598721 0.150238
55 3 0.904735 0.0544832 0.0370159
56 1 0.891556 0.833892 0.784816
57 2 0.447715 0.335543 0.551865
58 3 0.259873 0.316079 0.508948
59 3 0.412451 0.323174 0.619961
60 3 0.655883 0.353028 0.525677
ITEM: TIMESTEP
11000
ITEM: NUMBER OF ATOMS
60
ITEM: BOX BOUNDS pp pp pp
-1.3628050872860342e-01 5.2063805087286408e+00
-2.3604555008805050e-01 9.0177455500884633e+00
-4.5216282081802994e-01 1.7274162820815690e+01
ITEM: ATOMS id type xs ys zs
1 1 0.951929 0.547428 0.125172
2 2 0.878351 0.339171 0.780821
3 3 0.669453 0.404612 0.79069
4 3 0.00266741 0.318204 0.837925
5 3 0.937687 0.29097 0.71585
6 1 0.931835 0.189663 0.456498
7 2 0.884972 0.335258 0.299747
8 3 0.938467 0.255705 0.241705
9 3 0.0267242 0.339026 0.355344
10 3 0.673411 0.392334 0.296752
11 1 0.332482 0.51313 0.359737
12 2 0.957616 0.669541 0.952174
13 3 0.834293 0.703872 0.0100968
14 3 0.850049 0.634119 0.893868
15 3 0.188447 0.684377 0.957964
16 1 0.369088 0.135633 0.693846
17 2 0.826788 0.724662 0.445354
18 3 0.608709 0.654733 0.441653
19 3 0.979213 0.735437 0.388322
20 3 0.916213 0.73083 0.51237
21 1 0.403088 0.523355 0.879046
22 2 0.491335 0.668523 0.22705
23 3 0.310703 0.640431 0.180956
24 3 0.446532 0.722915 0.292943
25 3 0.721305 0.659609 0.20915
26 1 0.914132 0.259338 0.974804
27 2 0.436049 0.411439 0.047132
28 3 0.19967 0.444601 0.0277215
29 3 0.627261 0.427364 0.00638999
30 3 0.455403 0.352996 0.113422
31 1 0.356098 0.215525 0.210737
32 2 0.457799 0.0522692 0.352969
33 3 0.369485 0.124868 0.406927
34 3 0.348133 1.00871 0.299553
35 3 0.704315 0.0504048 0.354498
36 1 0.988572 0.839964 0.258345
37 2 0.369727 0.655484 0.702346
38 3 0.546213 0.655991 0.655225
39 3 0.407818 0.693804 0.771347
40 3 0.155616 0.65263 0.674189
41 1 0.912391 0.498368 0.591827
42 2 0.846758 0.985798 0.60762
43 3 0.932214 0.94758 0.667138
44 3 -0.0214654 0.0170243 0.555839
45 3 0.617161 0.0214797 0.604589
46 1 0.530115 0.913103 0.995619
47 2 0.570836 0.0496964 0.876615
48 3 0.74786 0.96213 0.887759
49 3 0.455247 0.0585361 0.811583
50 3 0.524799 0.121115 0.934762
51 1 0.257426 0.82204 0.540418
52 2 0.0781383 0.0238039 0.0783056
53 3 0.296113 0.0804189 0.0742535
54 3 1.02758 0.959534 0.140683
55 3 0.969971 0.0151235 0.0159676
56 1 0.830634 0.792612 0.792957
57 2 0.407297 0.351802 0.556845
58 3 0.259468 0.416991 0.513267
59 3 0.336819 0.320692 0.622869
60 3 0.641731 0.343625 0.538233
ITEM: TIMESTEP
12000
ITEM: NUMBER OF ATOMS
60
ITEM: BOX BOUNDS pp pp pp
-1.3628050872860342e-01 5.2063805087286408e+00
-2.3604555008805050e-01 9.0177455500884633e+00
-4.5216282081802994e-01 1.7274162820815690e+01
ITEM: ATOMS id type xs ys zs
1 1 0.875884 0.527163 0.0939343
2 2 0.922018 0.374451 0.778204
3 3 0.844612 0.437418 0.718467
4 3 0.758227 0.34153 0.82048
5 3 0.160066 0.347706 0.787507
6 1 -0.0188431 0.211396 0.451648
7 2 0.865759 0.349227 0.279436
8 3 0.700777 0.328589 0.229851
9 3 0.813609 0.385498 0.347844
10 3 0.0938231 0.321984 0.259164
11 1 0.501408 0.526303 0.36018
12 2 0.955496 0.676275 0.94289
13 3 0.184781 0.65557 0.938124
14 3 0.881392 0.739839 1.00051
15 3 0.798631 0.61299 0.897985
16 1 0.466258 0.214522 0.698167
17 2 0.936653 0.711366 0.459884
18 3 0.716104 0.702594 0.453526
19 3 0.0803132 0.743595 0.406858
20 3 0.0369831 0.688735 0.525996
21 1 0.388058 0.516434 0.860243
22 2 0.346356 0.632387 0.195737
23 3 0.40457 0.642214 0.263926
24 3 0.505148 0.587184 0.147308
25 3 0.133828 0.648768 0.181803
26 1 0.811398 0.200409 0.945992
27 2 0.359757 0.353032 0.0411321
28 3 0.176374 0.429863 0.0302847
29 3 0.564545 0.362921 0.00369019
30 3 0.329111 0.260218 0.0858263
31 1 0.422005 0.194426 0.204289
32 2 0.605854 0.0812136 0.373031
33 3 0.539265 -0.00300692 0.316767
34 3 0.830128 0.0993909 0.373072
35 3 0.444779 0.0893441 0.425022
36 1 0.118404 0.854905 0.303444
37 2 0.404593 0.690227 0.709154
38 3 0.518481 0.70257 0.650036
39 3 0.517551 0.7033 0.771012
40 3 0.167622 0.689424 0.705604
41 1 0.826671 0.565373 0.607857
42 2 0.905022 0.0429969 0.605343
43 3 0.894321 0.0666935 0.535992
44 3 0.111917 0.0121293 0.645442
45 3 0.699986 0.049477 0.63498
46 1 0.372267 0.821868 0.0675492
47 2 0.411495 0.97066 0.877026
48 3 0.507521 0.966084 0.940379
49 3 0.550313 0.00739673 0.823253
50 3 0.176351 0.945169 0.863453
51 1 0.511302 0.855911 0.549316
52 2 0.936021 1.00543 0.114852
53 3 0.14795 0.969244 0.138752
54 3 0.735761 0.946436 0.143092
55 3 0.935152 0.0985054 0.0607809
56 1 0.843484 0.818268 0.812973
57 2 0.455238 0.386394 0.528714
58 3 0.295771 0.373283 0.47389
59 3 0.367729 0.39264 0.595322
60 3 0.681295 0.41042 0.514658
ITEM: TIMESTEP
13000
ITEM: NUMBER OF ATOMS
60
ITEM: BOX BOUNDS pp pp pp
-1.3628050872860342e-01 5.2063805087286408e+00
-2.3604555008805050e-01 9.0177455500884633e+00
-4.5216282081802994e-01 1.7274162820815690e+01
ITEM: ATOMS id type xs ys zs
1 1 0.0415005 0.529269 0.121613
2 2 0.912291 0.294709 0.763386
3 3 0.986538 0.38676 0.710943
4 3 0.809671 0.342637 0.827496
5 3 0.90098 0.169643 0.752457
6 1 0.799298 0.275136 0.48252
7 2 0.871718 0.303627 0.286046
8 3 0.646565 0.333786 0.262305
9 3 0.917818 0.246699 0.348567
10 3 0.0522117 0.350501 0.251952
11 1 0.319272 0.426761 0.350996
12 2 0.00817424 0.663853 0.964559
13 3 0.180094 0.750238 0.94931
14 3 0.0656238 0.526483 0.977108
15 3 0.785315 0.701944 0.948872
16 1 0.339392 0.136109 0.655636
17 2 0.786226 0.665024 0.391326
18 3 0.00646399 0.697961 0.406275
19 3 0.624732 0.755391 0.385581
20 3 0.735141 0.528945 0.410242
21 1 0.61108 0.532052 0.878801
22 2 0.549351 0.681678 0.180434
23 3 0.322746 0.698591 0.203815
24 3 0.716575 0.662491 0.2229
25 3 0.592942 0.691231 0.109244
26 1 0.970544 0.243201 0.940382
27 2 0.481612 0.341483 0.0568927
28 3 0.380291 0.366222 0.117
29 3 0.379712 0.262907 0.00575598
30 3 0.694311 0.391005 0.0428542
31 1 0.464742 0.173554 0.190653
32 2 0.312925 0.123561 0.390449
33 3 0.395975 0.118212 0.320228
34 3 0.367033 0.236211 0.43407
35 3 0.184396 0.0211897 0.417377
36 1 0.00979969 0.876337 0.304577
37 2 0.435286 0.695182 0.752854
38 3 0.669603 0.650796 0.744819
39 3 0.341159 0.687368 0.815926
40 3 0.323267 0.765073 0.703099
41 1 0.878898 0.602483 0.638218
42 2 0.899505 0.9214 0.581261
43 3 0.67232 0.976843 0.565256
44 3 0.0563313 0.998279 0.609433
45 3 0.903493 0.785076 0.577813
46 1 0.456187 0.896965 0.0213456
47 2 0.421805 0.0913966 0.860858
48 3 0.386838 0.147979 0.796964
49 3 0.633143 0.0371442 0.871216
50 3 0.24818 0.0616513 0.90333
51 1 0.323572 0.79916 0.493483
52 2 0.0314997 0.985226 0.125123
53 3 0.964044 1.00486 0.195298